C     ONCVPSP-4.0.1  r_core=   1.20716   1.25127
      6.0000      4.0000      211214    zatom,zion,pspd
     8       2   1     4   600     0    pspcod,pspxc,lmax,lloc,mmax,r2well
  5.99000000  0.00000000  0.00000000    rchrg fchrg qchrg
     2     2     0     0     0    nproj
     1     1           extension_switch
   0                         6.5423645568272E+00  3.4722955401373E-01
     1  0.0000000000000E+00  5.1367049502815E-09 -3.3213612193883E-08
     2  1.0000000000000E-02  6.5804408541128E-02  3.6927970009396E-02
     3  2.0000000000000E-02  1.3159346733257E-01  7.2946012277328E-02
     4  3.0000000000000E-02  1.9734925476609E-01  1.0716401838589E-01
     5  4.0000000000000E-02  2.6304876848562E-01  1.3873110044470E-01
     6  5.0000000000000E-02  3.2866154108290E-01  1.6685416480708E-01
     7  6.0000000000000E-02  3.9414743931340E-01  1.9081526625108E-01
     8  7.0000000000000E-02  4.5945470181913E-01  2.0998737611041E-01
     9  8.0000000000000E-02  5.2451826520775E-01  2.2384823105337E-01
    10  9.0000000000000E-02  5.8925842212113E-01  2.3199196941442E-01
    11  1.0000000000000E-01  6.5357984775973E-01  2.3413830834762E-01
    12  1.1000000000000E-01  7.1737102336268E-01  2.3013906663254E-01
    13  1.2000000000000E-01  7.8050407654372E-01  2.1998189364956E-01
    14  1.3000000000000E-01  8.4283504932999E-01  2.0379112369684E-01
    15  1.4000000000000E-01  9.0420459543520E-01  1.8182573522433E-01
    16  1.5000000000000E-01  9.6443909891519E-01  1.5447445545450E-01
    17  1.6000000000000E-01  1.0233521971008E+00  1.2224811097552E-01
    18  1.7000000000000E-01  1.0807466817758E+00  8.5769382975629E-02
    19  1.8000000000000E-01  1.1364167441531E+00  4.5760180622766E-02
    20  1.9000000000000E-01  1.1901505214825E+00  3.0268965334185E-03
    21  2.0000000000000E-01  1.2417328962596E+00 -4.1556146742219E-02
    22  2.1000000000000E-01  1.2909484931435E+00 -8.7064711711640E-02
    23  2.2000000000000E-01  1.3375848139651E+00 -1.3254374354269E-01
    24  2.3000000000000E-01  1.3814354477107E+00 -1.7702714794375E-01
    25  2.4000000000000E-01  1.4223032901820E+00 -2.1955783191657E-01
    26  2.5000000000000E-01  1.4600037072134E+00 -2.5920758363502E-01
    27  2.6000000000000E-01  1.4943675758931E+00 -2.9509637024618E-01
    28  2.7000000000000E-01  1.5252441401763E+00 -3.2641064378426E-01
    29  2.8000000000000E-01  1.5525036205678E+00 -3.5242026542057E-01
    30  2.9000000000000E-01  1.5760395221211E+00 -3.7249368654841E-01
    31  3.0000000000000E-01  1.5957705907617E+00 -3.8611106115325E-01
    32  3.1000000000000E-01  1.6116423747809E+00 -3.9287500681892E-01
    33  3.2000000000000E-01  1.6236283561216E+00 -3.9251878069383E-01
    34  3.3000000000000E-01  1.6317306246386E+00 -3.8491169078584E-01
    35  3.4000000000000E-01  1.6359800776794E+00 -3.7006162095715E-01
    36  3.5000000000000E-01  1.6364361369141E+00 -3.4811460875354E-01
    37  3.6000000000000E-01  1.6331859841521E+00 -3.1935147746749E-01
    38  3.7000000000000E-01  1.6263433277030E+00 -2.8418158630475E-01
    39  3.8000000000000E-01  1.6160467204789E+00 -2.4313382389544E-01
    40  3.9000000000000E-01  1.6024574602883E+00 -1.9684502937825E-01
    41  4.0000000000000E-01  1.5857571114393E+00 -1.4604608064489E-01
    42  4.1000000000000E-01  1.5661446946779E+00 -9.1545939891119E-02
    43  4.2000000000000E-01  1.5438335994619E+00 -3.4213991303532E-02
    44  4.3000000000000E-01  1.5190482784631E+00  2.5038956444267E-02
    45  4.4000000000000E-01  1.4920207888750E+00  8.5280600027650E-02
    46  4.5000000000000E-01  1.4629872484732E+00  1.4557757892300E-01
    47  4.6000000000000E-01  1.4321842763581E+00  2.0501598272769E-01
    48  4.7000000000000E-01  1.3998454888518E+00  2.6272148670946E-01
    49  4.8000000000000E-01  1.3661981201078E+00  3.1787867932915E-01
    50  4.9000000000000E-01  1.3314598346326E+00  3.6974916007001E-01
    51  5.0000000000000E-01  1.2958357951528E+00  4.1768800945386E-01
    52  5.1000000000000E-01  1.2595160441641E+00  4.6115826518352E-01
    53  5.2000000000000E-01  1.2226732511619E+00  4.9974307830839E-01
    54  5.3000000000000E-01  1.1854608701064E+00  5.3315527037391E-01
    55  5.4000000000000E-01  1.1480117432654E+00  5.6124406575328E-01
    56  5.5000000000000E-01  1.1104371783697E+00  5.8399883169770E-01
    57  5.6000000000000E-01  1.0728265162056E+00  6.0154972089799E-01
    58  5.7000000000000E-01  1.0352471955396E+00  6.1416517625619E-01
    59  5.8000000000000E-01  9.9774531185279E-01  6.2224632378842E-01
    60  5.9000000000000E-01  9.6034665595073E-01  6.2631834575194E-01
    61  6.0000000000000E-01  9.2305820833768E-01  6.2701899083715E-01
    62  6.1000000000000E-01  8.8587005551188E-01  6.2508444023369E-01
    63  6.2000000000000E-01  8.4875768524942E-01  6.2133280626846E-01
    64  6.3000000000000E-01  8.1168460969872E-01  6.1664559288957E-01
    65  6.4000000000000E-01  7.7460525787632E-01  6.1194749341254E-01
    66  6.5000000000000E-01  7.3746807309565E-01  6.0818493964991E-01
    67  6.6000000000000E-01  7.0021874610732E-01  6.0630384696021E-01
    68  6.7000000000000E-01  6.6280351138867E-01  6.0722702118828E-01
    69  6.8000000000000E-01  6.2517243217043E-01  6.1183170541876E-01
    70  6.9000000000000E-01  5.8728259947912E-01  6.2092774661009E-01
    71  7.0000000000000E-01  5.4910117172097E-01  6.3523685440141E-01
    72  7.1000000000000E-01  5.1060818412293E-01  6.5537340677689E-01
    73  7.2000000000000E-01  4.7179906163260E-01  6.8182723011347E-01
    74  7.3000000000000E-01  4.3268677458329E-01  7.1494874492321E-01
    75  7.4000000000000E-01  3.9330358344641E-01  7.5493682399643E-01
    76  7.5000000000000E-01  3.5370232718726E-01  8.0182965751063E-01
    77  7.6000000000000E-01  3.1395721894999E-01  8.5549886100664E-01
    78  7.7000000000000E-01  2.7416412284464E-01  9.1564699808898E-01
    79  7.8000000000000E-01  2.3444029629162E-01  9.8180862155741E-01
    80  7.9000000000000E-01  1.9492359348324E-01  1.0533548657772E+00
    81  8.0000000000000E-01  1.5577113682491E-01  1.1295015508683E+00
    82  8.1000000000000E-01  1.1715747448832E-01  1.2093206872079E+00
    83  8.2000000000000E-01  7.9272253217907E-02  1.2917551982458E+00
    84  8.3000000000000E-01  4.2317446050664E-02  1.3756366121936E+00
    85  8.4000000000000E-01  6.5041844210367E-03  1.4597054101360E+00
    86  8.5000000000000E-01 -2.7950746977757E-02  1.5426336608517E+00
    87  8.6000000000000E-01 -6.0828686405835E-02  1.6230495223025E+00
    88  8.7000000000000E-01 -9.1913069660665E-02  1.6995631474462E+00
    89  8.8000000000000E-01 -1.2099352520917E-01  1.7707934986294E+00
    90  8.9000000000000E-01 -1.4787000844620E-01  1.8353955510840E+00
    91  9.0000000000000E-01 -1.7235689166758E-01  1.8920873525091E+00
    92  9.1000000000000E-01 -1.9428692601649E-01  1.9396764027219E+00
    93  9.2000000000000E-01 -2.1351499301183E-01  1.9770848250243E+00
    94  9.3000000000000E-01 -2.2992156628162E-01  2.0033728191829E+00
    95  9.4000000000000E-01 -2.4341580875437E-01  2.0177599144450E+00
    96  9.5000000000000E-01 -2.5393823672634E-01  2.0196435793182E+00
    97  9.6000000000000E-01 -2.6146288980825E-01  2.0086147922017E+00
    98  9.7000000000000E-01 -2.6599895462092E-01  1.9844702324957E+00
    99  9.8000000000000E-01 -2.6759180008300E-01  1.9472208144393E+00
   100  9.9000000000000E-01 -2.6632339303080E-01  1.8970963544716E+00
   101  1.0000000000000E+00 -2.6231207451129E-01  1.8345462359916E+00
   102  1.0100000000000E+00 -2.5571168916957E-01  1.7602360115951E+00
   103  1.0200000000000E+00 -2.4671007247771E-01  1.6750399606920E+00
   104  1.0300000000000E+00 -2.3552691288045E-01  1.5800296983411E+00
   105  1.0400000000000E+00 -2.2241101800770E-01  1.4764590075424E+00
   106  1.0500000000000E+00 -2.0763702570010E-01  1.3657451406767E+00
   107  1.0600000000000E+00 -1.9150161147666E-01  1.2494469047947E+00
   108  1.0700000000000E+00 -1.7431925400304E-01  1.1292399085042E+00
   109  1.0800000000000E+00 -1.5641762893574E-01  1.0068894042772E+00
   110  1.0900000000000E+00 -1.3813270899803E-01  8.8422120767415E-01
   111  1.1000000000000E+00 -1.1980365416657E-01  7.6309121349758E-01
   112  1.1100000000000E+00 -1.0176758027655E-01  6.4535405735981E-01
   113  1.1200000000000E+00 -8.4354297092982E-02  5.3283148898697E-01
   114  1.1300000000000E+00 -6.7881108544078E-02  4.2728103455092E-01
   115  1.1400000000000E+00 -5.2647764193375E-02  3.3036549883927E-01
   116  1.1500000000000E+00 -3.8930343176790E-02  2.4361562694672E-01
   117  1.1600000000000E+00 -2.6967029803827E-02  1.6834056076831E-01
   118  1.1700000000000E+00 -1.6983563499899E-02  1.0578991926623E-01
   119  1.1800000000000E+00 -9.1740630007899E-03  5.7035491652405E-02
   120  1.1900000000000E+00 -3.6928944766179E-03  2.2920032734870E-02
   121  1.2000000000000E+00 -6.4593958796919E-04  4.0030730074733E-03
   122  1.2100000000000E+00  3.2378183902054E-05 -2.0045235994249E-04
   123  1.2200000000000E+00 -5.8100865733409E-06  3.5980368106561E-05
   124  1.23 -0.  0.
   125  1.24  0.  0.
   126  1.25  0.  0.
   127  1.26  0.  0.
   128  1.27  0.  0.
   129  1.28  0.  0.
   130  1.29  0.  0.
   131  1.30  0.  0.
   132  1.31  0.  0.
   133  1.32  0.  0.
   134  1.33  0.  0.
   135  1.34  0.  0.
   136  1.35  0.  0.
   137  1.36  0.  0.
   138  1.37  0.  0.
   139  1.38  0.  0.
   140  1.39  0.  0.
   141  1.40  0.  0.
   142  1.41  0.  0.
   143  1.42  0.  0.
   144  1.43  0.  0.
   145  1.44  0.  0.
   146  1.45  0.  0.
   147  1.46  0.  0.
   148  1.47  0.  0.
   149  1.48  0.  0.
   150  1.49  0.  0.
   151  1.50  0.  0.
   152  1.51  0.  0.
   153  1.52  0.  0.
   154  1.53  0.  0.
   155  1.54  0.  0.
   156  1.55  0.  0.
   157  1.56  0.  0.
   158  1.57  0.  0.
   159  1.58  0.  0.
   160  1.59  0.  0.
   161  1.60  0.  0.
   162  1.61  0.  0.
   163  1.62  0.  0.
   164  1.63  0.  0.
   165  1.64  0.  0.
   166  1.65  0.  0.
   167  1.66  0.  0.
   168  1.67  0.  0.
   169  1.68  0.  0.
   170  1.69  0.  0.
   171  1.70  0.  0.
   172  1.71  0.  0.
   173  1.72  0.  0.
   174  1.73  0.  0.
   175  1.74  0.  0.
   176  1.75  0.  0.
   177  1.76  0.  0.
   178  1.77  0.  0.
   179  1.78  0.  0.
   180  1.79  0.  0.
   181  1.80  0.  0.
   182  1.81  0.  0.
   183  1.82  0.  0.
   184  1.83  0.  0.
   185  1.84  0.  0.
   186  1.85  0.  0.
   187  1.86  0.  0.
   188  1.87  0.  0.
   189  1.88  0.  0.
   190  1.89  0.  0.
   191  1.90  0.  0.
   192  1.91  0.  0.
   193  1.92  0.  0.
   194  1.93  0.  0.
   195  1.94  0.  0.
   196  1.95  0.  0.
   197  1.96  0.  0.
   198  1.97  0.  0.
   199  1.98  0.  0.
   200  1.99  0.  0.
   201  2.00  0.  0.
   202  2.01  0.  0.
   203  2.02  0.  0.
   204  2.03  0.  0.
   205  2.04  0.  0.
   206  2.05  0.  0.
   207  2.06  0.  0.
   208  2.07  0.  0.
   209  2.08  0.  0.
   210  2.09  0.  0.
   211  2.10  0.  0.
   212  2.11  0.  0.
   213  2.12  0.  0.
   214  2.13  0.  0.
   215  2.14  0.  0.
   216  2.15  0.  0.
   217  2.16  0.  0.
   218  2.17  0.  0.
   219  2.18  0.  0.
   220  2.19  0.  0.
   221  2.20  0.  0.
   222  2.21  0.  0.
   223  2.22  0.  0.
   224  2.23  0.  0.
   225  2.24  0.  0.
   226  2.25  0.  0.
   227  2.26  0.  0.
   228  2.27  0.  0.
   229  2.28  0.  0.
   230  2.29  0.  0.
   231  2.30  0.  0.
   232  2.31  0.  0.
   233  2.32  0.  0.
   234  2.33  0.  0.
   235  2.34  0.  0.
   236  2.35  0.  0.
   237  2.36  0.  0.
   238  2.37  0.  0.
   239  2.38  0.  0.
   240  2.39  0.  0.
   241  2.40  0.  0.
   242  2.41  0.  0.
   243  2.42  0.  0.
   244  2.43  0.  0.
   245  2.44  0.  0.
   246  2.45  0.  0.
   247  2.46  0.  0.
   248  2.47  0.  0.
   249  2.48  0.  0.
   250  2.49  0.  0.
   251  2.50  0.  0.
   252  2.51  0.  0.
   253  2.52  0.  0.
   254  2.53  0.  0.
   255  2.54  0.  0.
   256  2.55  0.  0.
   257  2.56  0.  0.
   258  2.57  0.  0.
   259  2.58  0.  0.
   260  2.59  0.  0.
   261  2.60  0.  0.
   262  2.61  0.  0.
   263  2.62  0.  0.
   264  2.63  0.  0.
   265  2.64  0.  0.
   266  2.65  0.  0.
   267  2.66  0.  0.
   268  2.67  0.  0.
   269  2.68  0.  0.
   270  2.69  0.  0.
   271  2.70  0.  0.
   272  2.71  0.  0.
   273  2.72  0.  0.
   274  2.73  0.  0.
   275  2.74  0.  0.
   276  2.75  0.  0.
   277  2.76  0.  0.
   278  2.77  0.  0.
   279  2.78  0.  0.
   280  2.79  0.  0.
   281  2.80  0.  0.
   282  2.81  0.  0.
   283  2.82  0.  0.
   284  2.83  0.  0.
   285  2.84  0.  0.
   286  2.85  0.  0.
   287  2.86  0.  0.
   288  2.87  0.  0.
   289  2.88  0.  0.
   290  2.89  0.  0.
   291  2.90  0.  0.
   292  2.91  0.  0.
   293  2.92  0.  0.
   294  2.93  0.  0.
   295  2.94  0.  0.
   296  2.95  0.  0.
   297  2.96  0.  0.
   298  2.97  0.  0.
   299  2.98  0.  0.
   300  2.99  0.  0.
   301  3.00  0.  0.
   302  3.01  0.  0.
   303  3.02  0.  0.
   304  3.03  0.  0.
   305  3.04  0.  0.
   306  3.05  0.  0.
   307  3.06  0.  0.
   308  3.07  0.  0.
   309  3.08  0.  0.
   310  3.09  0.  0.
   311  3.10  0.  0.
   312  3.11  0.  0.
   313  3.12  0.  0.
   314  3.13  0.  0.
   315  3.14  0.  0.
   316  3.15  0.  0.
   317  3.16  0.  0.
   318  3.17  0.  0.
   319  3.18  0.  0.
   320  3.19  0.  0.
   321  3.20  0.  0.
   322  3.21  0.  0.
   323  3.22  0.  0.
   324  3.23  0.  0.
   325  3.24  0.  0.
   326  3.25  0.  0.
   327  3.26  0.  0.
   328  3.27  0.  0.
   329  3.28  0.  0.
   330  3.29  0.  0.
   331  3.30  0.  0.
   332  3.31  0.  0.
   333  3.32  0.  0.
   334  3.33  0.  0.
   335  3.34  0.  0.
   336  3.35  0.  0.
   337  3.36  0.  0.
   338  3.37  0.  0.
   339  3.38  0.  0.
   340  3.39  0.  0.
   341  3.40  0.  0.
   342  3.41  0.  0.
   343  3.42  0.  0.
   344  3.43  0.  0.
   345  3.44  0.  0.
   346  3.45  0.  0.
   347  3.46  0.  0.
   348  3.47  0.  0.
   349  3.48  0.  0.
   350  3.49  0.  0.
   351  3.50  0.  0.
   352  3.51  0.  0.
   353  3.52  0.  0.
   354  3.53  0.  0.
   355  3.54  0.  0.
   356  3.55  0.  0.
   357  3.56  0.  0.
   358  3.57  0.  0.
   359  3.58  0.  0.
   360  3.59  0.  0.
   361  3.60  0.  0.
   362  3.61  0.  0.
   363  3.62  0.  0.
   364  3.63  0.  0.
   365  3.64  0.  0.
   366  3.65  0.  0.
   367  3.66  0.  0.
   368  3.67  0.  0.
   369  3.68  0.  0.
   370  3.69  0.  0.
   371  3.70  0.  0.
   372  3.71  0.  0.
   373  3.72  0.  0.
   374  3.73  0.  0.
   375  3.74  0.  0.
   376  3.75  0.  0.
   377  3.76  0.  0.
   378  3.77  0.  0.
   379  3.78  0.  0.
   380  3.79  0.  0.
   381  3.80  0.  0.
   382  3.81  0.  0.
   383  3.82  0.  0.
   384  3.83  0.  0.
   385  3.84  0.  0.
   386  3.85  0.  0.
   387  3.86  0.  0.
   388  3.87  0.  0.
   389  3.88  0.  0.
   390  3.89  0.  0.
   391  3.90  0.  0.
   392  3.91  0.  0.
   393  3.92  0.  0.
   394  3.93  0.  0.
   395  3.94  0.  0.
   396  3.95  0.  0.
   397  3.96  0.  0.
   398  3.97  0.  0.
   399  3.98  0.  0.
   400  3.99  0.  0.
   401  4.00  0.  0.
   402  4.01  0.  0.
   403  4.02  0.  0.
   404  4.03  0.  0.
   405  4.04  0.  0.
   406  4.05  0.  0.
   407  4.06  0.  0.
   408  4.07  0.  0.
   409  4.08  0.  0.
   410  4.09  0.  0.
   411  4.10  0.  0.
   412  4.11  0.  0.
   413  4.12  0.  0.
   414  4.13  0.  0.
   415  4.14  0.  0.
   416  4.15  0.  0.
   417  4.16  0.  0.
   418  4.17  0.  0.
   419  4.18  0.  0.
   420  4.19  0.  0.
   421  4.20  0.  0.
   422  4.21  0.  0.
   423  4.22  0.  0.
   424  4.23  0.  0.
   425  4.24  0.  0.
   426  4.25  0.  0.
   427  4.26  0.  0.
   428  4.27  0.  0.
   429  4.28  0.  0.
   430  4.29  0.  0.
   431  4.30  0.  0.
   432  4.31  0.  0.
   433  4.32  0.  0.
   434  4.33  0.  0.
   435  4.34  0.  0.
   436  4.35  0.  0.
   437  4.36  0.  0.
   438  4.37  0.  0.
   439  4.38  0.  0.
   440  4.39  0.  0.
   441  4.40  0.  0.
   442  4.41  0.  0.
   443  4.42  0.  0.
   444  4.43  0.  0.
   445  4.44  0.  0.
   446  4.45  0.  0.
   447  4.46  0.  0.
   448  4.47  0.  0.
   449  4.48  0.  0.
   450  4.49  0.  0.
   451  4.50  0.  0.
   452  4.51  0.  0.
   453  4.52  0.  0.
   454  4.53  0.  0.
   455  4.54  0.  0.
   456  4.55  0.  0.
   457  4.56  0.  0.
   458  4.57  0.  0.
   459  4.58  0.  0.
   460  4.59  0.  0.
   461  4.60  0.  0.
   462  4.61  0.  0.
   463  4.62  0.  0.
   464  4.63  0.  0.
   465  4.64  0.  0.
   466  4.65  0.  0.
   467  4.66  0.  0.
   468  4.67  0.  0.
   469  4.68  0.  0.
   470  4.69  0.  0.
   471  4.70  0.  0.
   472  4.71  0.  0.
   473  4.72  0.  0.
   474  4.73  0.  0.
   475  4.74  0.  0.
   476  4.75  0.  0.
   477  4.76  0.  0.
   478  4.77  0.  0.
   479  4.78  0.  0.
   480  4.79  0.  0.
   481  4.80  0.  0.
   482  4.81  0.  0.
   483  4.82  0.  0.
   484  4.83  0.  0.
   485  4.84  0.  0.
   486  4.85  0.  0.
   487  4.86  0.  0.
   488  4.87  0.  0.
   489  4.88  0.  0.
   490  4.89  0.  0.
   491  4.90  0.  0.
   492  4.91  0.  0.
   493  4.92  0.  0.
   494  4.93  0.  0.
   495  4.94  0.  0.
   496  4.95  0.  0.
   497  4.96  0.  0.
   498  4.97  0.  0.
   499  4.98  0.  0.
   500  4.99  0.  0.
   501  5.00  0.  0.
   502  5.01  0.  0.
   503  5.02  0.  0.
   504  5.03  0.  0.
   505  5.04  0.  0.
   506  5.05  0.  0.
   507  5.06  0.  0.
   508  5.07  0.  0.
   509  5.08  0.  0.
   510  5.09  0.  0.
   511  5.10  0.  0.
   512  5.11  0.  0.
   513  5.12  0.  0.
   514  5.13  0.  0.
   515  5.14  0.  0.
   516  5.15  0.  0.
   517  5.16  0.  0.
   518  5.17  0.  0.
   519  5.18  0.  0.
   520  5.19  0.  0.
   521  5.20  0.  0.
   522  5.21  0.  0.
   523  5.22  0.  0.
   524  5.23  0.  0.
   525  5.24  0.  0.
   526  5.25  0.  0.
   527  5.26  0.  0.
   528  5.27  0.  0.
   529  5.28  0.  0.
   530  5.29  0.  0.
   531  5.30  0.  0.
   532  5.31  0.  0.
   533  5.32  0.  0.
   534  5.33  0.  0.
   535  5.34  0.  0.
   536  5.35  0.  0.
   537  5.36  0.  0.
   538  5.37  0.  0.
   539  5.38  0.  0.
   540  5.39  0.  0.
   541  5.40  0.  0.
   542  5.41  0.  0.
   543  5.42  0.  0.
   544  5.43  0.  0.
   545  5.44  0.  0.
   546  5.45  0.  0.
   547  5.46  0.  0.
   548  5.47  0.  0.
   549  5.48  0.  0.
   550  5.49  0.  0.
   551  5.50  0.  0.
   552  5.51  0.  0.
   553  5.52  0.  0.
   554  5.53  0.  0.
   555  5.54  0.  0.
   556  5.55  0.  0.
   557  5.56  0.  0.
   558  5.57  0.  0.
   559  5.58  0.  0.
   560  5.59  0.  0.
   561  5.60  0.  0.
   562  5.61  0.  0.
   563  5.62  0.  0.
   564  5.63  0.  0.
   565  5.64  0.  0.
   566  5.65  0.  0.
   567  5.66  0.  0.
   568  5.67  0.  0.
   569  5.68  0.  0.
   570  5.69  0.  0.
   571  5.70  0.  0.
   572  5.71  0.  0.
   573  5.72  0.  0.
   574  5.73  0.  0.
   575  5.74  0.  0.
   576  5.75  0.  0.
   577  5.76  0.  0.
   578  5.77  0.  0.
   579  5.78  0.  0.
   580  5.79  0.  0.
   581  5.80  0.  0.
   582  5.81  0.  0.
   583  5.82  0.  0.
   584  5.83  0.  0.
   585  5.84  0.  0.
   586  5.85  0.  0.
   587  5.86  0.  0.
   588  5.87  0.  0.
   589  5.88  0.  0.
   590  5.89  0.  0.
   591  5.90  0.  0.
   592  5.91  0.  0.
   593  5.92  0.  0.
   594  5.93  0.  0.
   595  5.94  0.  0.
   596  5.95  0.  0.
   597  5.96  0.  0.
   598  5.97  0.  0.
   599  5.98  0.  0.
   600  5.99  0.  0.
   1                        -4.1835398121231E+00 -8.6132464688564E-01
     1  0.0000000000000E+00 -1.7674248481425E-08  3.3992839432173E-08
     2  1.0000000000000E-02  2.4197180436318E-03 -1.0256214798901E-03
     3  2.0000000000000E-02  9.6715357889206E-03 -4.1007036564053E-03
     4  3.0000000000000E-02  2.1733199846532E-02 -9.2194191172998E-03
     5  4.0000000000000E-02  3.8566819498727E-02 -1.6370477695212E-02
     6  5.0000000000000E-02  6.0117706937902E-02 -2.5534843710758E-02
     7  6.0000000000000E-02  8.6312837639108E-02 -3.6682704655653E-02
     8  7.0000000000000E-02  1.1705901112240E-01 -4.9769848079641E-02
     9  8.0000000000000E-02  1.5224081003508E-01 -6.4733637437854E-02
    10  9.0000000000000E-02  1.9171846946627E-01 -8.1488804082264E-02
    11  1.0000000000000E-01  2.3532577814601E-01 -9.9923290336712E-02
    12  1.1000000000000E-01  2.8286813827444E-01 -1.1989438688214E-01
    13  1.2000000000000E-01  3.3412091092970E-01 -1.4122540604330E-01
    14  1.3000000000000E-01  3.8882816924592E-01 -1.6370312091944E-01
    15  1.4000000000000E-01  4.4670197193689E-01 -1.8707617891274E-01
    16  1.5000000000000E-01  5.0742225554219E-01 -2.1105466771798E-01
    17  1.6000000000000E-01  5.7063742542872E-01 -2.3531097321975E-01
    18  1.7000000000000E-01  6.3596570368183E-01 -2.5948202329176E-01
    19  1.8000000000000E-01  7.0299726728544E-01 -2.8317296076067E-01
    20  1.9000000000000E-01  7.7129718324916E-01 -3.0596223456085E-01
    21  2.0000000000000E-01  8.4040911950025E-01 -3.2740804229848E-01
    22  2.1000000000000E-01  9.0985978238050E-01 -3.4705600208708E-01
    23  2.2000000000000E-01  9.7916400444938E-01 -3.6444787865877E-01
    24  2.3000000000000E-01  1.0478303809614E+00 -3.7913114039496E-01
    25  2.4000000000000E-01  1.1153673307734E+00 -3.9066908193500E-01
    26  2.5000000000000E-01  1.1812894383863E+00 -3.9865121310525E-01
    27  2.6000000000000E-01  1.2451239190668E+00 -4.0270359051008E-01
    28  2.7000000000000E-01  1.3064170391243E+00 -4.0249875438253E-01
    29  2.8000000000000E-01  1.3647403188849E+00 -3.9776493100591E-01
    30  2.9000000000000E-01  1.4196963469656E+00 -3.8829417060191E-01
    31  3.0000000000000E-01  1.4709240412141E+00 -3.7394911205520E-01
    32  3.1000000000000E-01  1.5181032040162E+00 -3.5466809881227E-01
    33  3.2000000000000E-01  1.5609582373178E+00 -3.3046841395712E-01
    34  3.3000000000000E-01  1.5992609051689E+00 -3.0144745564376E-01
    35  3.4000000000000E-01  1.6328320582418E+00 -2.6778173521991E-01
    36  3.5000000000000E-01  1.6615422648161E+00 -2.2972364766270E-01
    37  3.6000000000000E-01  1.6853113252297E+00 -1.8759603526684E-01
    38  3.7000000000000E-01  1.7041066807634E+00 -1.4178463859408E-01
    39  3.8000000000000E-01  1.7179407622686E+00 -9.2728601105514E-02
    40  3.9000000000000E-01  1.7268673574453E+00 -4.0909263215524E-02
    41  4.0000000000000E-01  1.7309771074276E+00  1.3162454672923E-02
    42  4.1000000000000E-01  1.7303922721533E+00  6.8959724546792E-02
    43  4.2000000000000E-01  1.7252609288960E+00  1.2595413678155E-01
    44  4.3000000000000E-01  1.7157507884279E+00  1.8363024344256E-01
    45  4.4000000000000E-01  1.7020428278125E+00  2.4149986118866E-01
    46  4.5000000000000E-01  1.6843249472121E+00  2.9911566891452E-01
    47  4.6000000000000E-01  1.6627858599479E+00  3.5608364297454E-01
    48  4.7000000000000E-01  1.6376094201607E+00  4.1207389558471E-01
    49  4.8000000000000E-01  1.6089695808275E+00  4.6682951950277E-01
    50  4.9000000000000E-01  1.5770261568117E+00  5.2017309355212E-01
    51  5.0000000000000E-01  1.5419215435160E+00  5.7201056773346E-01
    52  5.1000000000000E-01  1.5037785122211E+00  6.2233232186499E-01
    53  5.2000000000000E-01  1.4626991691499E+00  6.7121127582274E-01
    54  5.3000000000000E-01  1.4187651277005E+00  7.1879802009397E-01
    55  5.4000000000000E-01  1.3720389032630E+00  7.6531302981560E-01
    56  5.5000000000000E-01  1.3225664987993E+00  8.1103612087012E-01
    57  5.6000000000000E-01  1.2703811082097E+00  8.5629339996837E-01
    58  5.7000000000000E-01  1.2155078247454E+00  9.0144204897297E-01
    59  5.8000000000000E-01  1.1579692046416E+00  9.4685336409828E-01
    60  5.9000000000000E-01  1.0977915029757E+00  9.9289454033051E-01
    61  6.0000000000000E-01  1.0350113706325E+00  1.0399097479788E+00
    62  6.1000000000000E-01  9.6968277918756E-01  1.0882010895735E+00
    63  6.2000000000000E-01  9.0188392531671E-01  1.1380100496767E+00
    64  6.3000000000000E-01  8.3172385865673E-01  1.1895000563403E+00
    65  6.4000000000000E-01  7.5934857727083E-01  1.2427407602657E+00
    66  6.5000000000000E-01  6.8494634320013E-01  1.2976946060447E+00
    67  6.6000000000000E-01  6.0875198692998E-01  1.3542062196741E+00
    68  6.7000000000000E-01  5.3104999364620E-01  1.4119950688477E+00
    69  6.8000000000000E-01  4.5217619533919E-01  1.4706517689407E+00
    70  6.9000000000000E-01  3.7251793033301E-01  1.5296383102258E+00
    71  7.0000000000000E-01  2.9251257467446E-01  1.5882923732580E+00
    72  7.1000000000000E-01  2.1264439681715E-01  1.6458357825347E+00
    73  7.2000000000000E-01  1.3343973685345E-01  1.7013870267421E+00
    74  7.3000000000000E-01  5.5460562720847E-02  1.7539776506774E+00
    75  7.4000000000000E-01 -2.0703493163848E-02  1.8025722029019E+00
    76  7.5000000000000E-01 -9.4444464058503E-02  1.8460913079889E+00
    77  7.6000000000000E-01 -1.6514654693769E-01  1.8834373264441E+00
    78  7.7000000000000E-01 -2.3219752806464E-01  1.9135219723251E+00
    79  7.8000000000000E-01 -2.9500086028055E-01  1.9352951813361E+00
    80  7.9000000000000E-01 -3.5298808792414E-01  1.9477744633459E+00
    81  8.0000000000000E-01 -4.0563129519151E-01  1.9500739350374E+00
    82  8.1000000000000E-01 -4.5245524257725E-01  1.9414322123208E+00
    83  8.2000000000000E-01 -4.9304885431394E-01  1.9212383492108E+00
    84  8.3000000000000E-01 -5.2707572769119E-01  1.8890550403884E+00
    85  8.4000000000000E-01 -5.5428335274230E-01  1.8446383582716E+00
    86  8.5000000000000E-01 -5.7451075771333E-01  1.7879533710604E+00
    87  8.6000000000000E-01 -5.8769433136750E-01  1.7191850841944E+00
    88  8.7000000000000E-01 -5.9387161665816E-01  1.6387442616369E+00
    89  8.8000000000000E-01 -5.9318292051029E-01  1.5472678124808E+00
    90  8.9000000000000E-01 -5.8587064005609E-01  1.4456135691893E+00
    91  9.0000000000000E-01 -5.7227626516976E-01  1.3348494325538E+00
    92  9.1000000000000E-01 -5.5283507890023E-01  1.2162370111119E+00
    93  9.2000000000000E-01 -5.2806863967388E-01  1.0912100350584E+00
    94  9.3000000000000E-01 -4.9857519017297E-01  9.6134797232035E-01
    95  9.4000000000000E-01 -4.6501819582455E-01  8.2834541318735E-01
    96  9.5000000000000E-01 -4.2811326916971E-01  6.9397791565528E-01
    97  9.6000000000000E-01 -3.8861378344631E-01  5.6006511270752E-01
    98  9.7000000000000E-01 -3.4729551808976E-01  4.2843197179833E-01
    99  9.8000000000000E-01 -3.0494070932282E-01  3.0086916301701E-01
   100  9.9000000000000E-01 -2.6232189960363E-01  1.7909353362385E-01
   101  1.0000000000000E+00 -2.2018598971295E-01  6.4709701301094E-02
   102  1.0100000000000E+00 -1.7923889630406E-01 -4.0826234178533E-02
   103  1.0200000000000E+00 -1.4013120571488E-01 -1.3623990113144E-01
   104  1.0300000000000E+00 -1.0344519194801E-01 -2.2046789487259E-01
   105  1.0400000000000E+00 -6.9683533541225E-02 -2.9268224386896E-01
   106  1.0500000000000E+00 -3.9260021387719E-02 -3.5230941615061E-01
   107  1.0600000000000E+00 -1.2492498474569E-02 -3.9904331360945E-01
   108  1.0700000000000E+00  1.0401785468040E-02 -4.3285185259968E-01
   109  1.0800000000000E+00  2.9308284985068E-02 -4.5397689294947E-01
   110  1.0900000000000E+00  4.4214683314438E-02 -4.6292744902164E-01
   111  1.1000000000000E+00  5.5207846957372E-02 -4.6046629155498E-01
   112  1.1100000000000E+00  6.2468296214448E-02 -4.4759022312715E-01
   113  1.1200000000000E+00  6.6262344315854E-02 -4.2550447754859E-01
   114  1.1300000000000E+00  6.6932121042566E-02 -3.9559185113413E-01
   115  1.1400000000000E+00  6.4883753919778E-02 -3.5937731536024E-01
   116  1.1500000000000E+00  6.0574030360940E-02 -3.1848898395980E-01
   117  1.1600000000000E+00  5.4495905289791E-02 -2.7461640752224E-01
   118  1.1700000000000E+00  4.7163251179733E-02 -2.2946724529631E-01
   119  1.1800000000000E+00  3.9095262273041E-02 -1.8472340490182E-01
   120  1.1900000000000E+00  3.0800809616579E-02 -1.4199755406410E-01
   121  1.2000000000000E+00  2.2761086526428E-02 -1.0278855654637E-01
   122  1.2100000000000E+00  1.5422547161199E-02 -6.8453199158305E-02
   123  1.2200000000000E+00  9.1812862508322E-03 -4.0166223911238E-02
   124  1.2300000000000E+00  4.3709024079927E-03 -1.8893618441747E-02
   125  1.2400000000000E+00  1.2453652022579E-03 -5.3308576256563E-03
   126  1.2500000000000E+00  3.5853040854632E-05 -1.5212406005663E-04
   127  1.2600000000000E+00  4.8838853875159E-06 -2.0746881615774E-05
   128  1.2700000000000E+00 -1.4565458640201E-06  6.2136547137269E-06
   129  1.28  0. -0.
   130  1.29  0.  0.
   131  1.30  0.  0.
   132  1.31  0.  0.
   133  1.32  0.  0.
   134  1.33  0.  0.
   135  1.34  0.  0.
   136  1.35  0.  0.
   137  1.36  0.  0.
   138  1.37  0.  0.
   139  1.38  0.  0.
   140  1.39  0.  0.
   141  1.40  0.  0.
   142  1.41  0.  0.
   143  1.42  0.  0.
   144  1.43  0.  0.
   145  1.44  0.  0.
   146  1.45  0.  0.
   147  1.46  0.  0.
   148  1.47  0.  0.
   149  1.48  0.  0.
   150  1.49  0.  0.
   151  1.50  0.  0.
   152  1.51  0.  0.
   153  1.52  0.  0.
   154  1.53  0.  0.
   155  1.54  0.  0.
   156  1.55  0.  0.
   157  1.56  0.  0.
   158  1.57  0.  0.
   159  1.58  0.  0.
   160  1.59  0.  0.
   161  1.60  0.  0.
   162  1.61  0.  0.
   163  1.62  0.  0.
   164  1.63  0.  0.
   165  1.64  0.  0.
   166  1.65  0.  0.
   167  1.66  0.  0.
   168  1.67  0.  0.
   169  1.68  0.  0.
   170  1.69  0.  0.
   171  1.70  0.  0.
   172  1.71  0.  0.
   173  1.72  0.  0.
   174  1.73  0.  0.
   175  1.74  0.  0.
   176  1.75  0.  0.
   177  1.76  0.  0.
   178  1.77  0.  0.
   179  1.78  0.  0.
   180  1.79  0.  0.
   181  1.80  0.  0.
   182  1.81  0.  0.
   183  1.82  0.  0.
   184  1.83  0.  0.
   185  1.84  0.  0.
   186  1.85  0.  0.
   187  1.86  0.  0.
   188  1.87  0.  0.
   189  1.88  0.  0.
   190  1.89  0.  0.
   191  1.90  0.  0.
   192  1.91  0.  0.
   193  1.92  0.  0.
   194  1.93  0.  0.
   195  1.94  0.  0.
   196  1.95  0.  0.
   197  1.96  0.  0.
   198  1.97  0.  0.
   199  1.98  0.  0.
   200  1.99  0.  0.
   201  2.00  0.  0.
   202  2.01  0.  0.
   203  2.02  0.  0.
   204  2.03  0.  0.
   205  2.04  0.  0.
   206  2.05  0.  0.
   207  2.06  0.  0.
   208  2.07  0.  0.
   209  2.08  0.  0.
   210  2.09  0.  0.
   211  2.10  0.  0.
   212  2.11  0.  0.
   213  2.12  0.  0.
   214  2.13  0.  0.
   215  2.14  0.  0.
   216  2.15  0.  0.
   217  2.16  0.  0.
   218  2.17  0.  0.
   219  2.18  0.  0.
   220  2.19  0.  0.
   221  2.20  0.  0.