:MDSTEP: 1
:R(Bohr):
  1.5439138723E+01   0.0000000000E+00   0.0000000000E+00
  8.8329884813E+00   1.2662753215E+01   1.9050000000E-01
:V(Bohr/atu):
 -1.3571927010E-05   2.5996528541E-04  -2.4034767991E-05
  1.3571927010E-05  -2.5996528541E-04   2.4034767991E-05
:TEL(K): 315.775024804068
:TIO(K): 315
