:RELAXSTEP: 2336
:E(Ha): 0.000000000000000E+00
:R(Bohr):
   0.338978096168198    0.152891317443891    0.310358648686117
   3.618282018210062    4.063368679366760    0.799972783327945
   0.344930345039368    4.361801554795298    3.122813816756571
   3.341996420480907    1.338713845794903    3.078068507525574
   1.741963248278797    2.763946849778581    2.758353609295308
   5.583569527610850    5.737797615489977    3.280245206669758
   2.869573760013800    4.893781367300567    5.747626107724911
   5.377569307823312    2.434775868638059    5.476618680693062
:ISFD: 0
:ISRESET: 0
:STEP: 42
:DX:
  -0.000148973036301
  -0.000170894844649
  -0.000103552405900
   0.000003523398878
   0.000096937174793
   0.000171172428312
   0.000239171557801
   0.000318664356564
   0.000425581997302
   0.000565203452636
   0.000718010041824
   0.000835484459962
  -0.000204845491576
  -0.000241288831155
  -0.000170963965259
  -0.000054504692008
   0.000041069314024
   0.000109306904228
   0.000160744126030
   0.000207921834566
   0.000260675980847
   0.000322155914004
   0.000384649581025
   0.000429853636706
  -0.000215154306578
  -0.000234284546725
  -0.000181961819981
  -0.000090035458495
  -0.000006680284011
   0.000053820614451
   0.000095512248709
   0.000126475246304
   0.000153672700851
   0.000180396620620
   0.000204963875507
   0.000221420337300
  -0.000200827067865
  -0.000205646229631
  -0.000167051654219
  -0.000101744423055
  -0.000036971378277
   0.000013208648793
   0.000047700250886
   0.000070682175918
   0.000086938961973
   0.000099690634695
   0.000109749968733
   0.000115887169926
  -0.000184382816912
  -0.000180147113803
  -0.000148685256265
  -0.000100636215641
  -0.000051519509625
  -0.000011440657463
   0.000016973607213
   0.000035494373069
   0.000047249890543
   0.000054970753027
   0.000060206222401
   0.000063354497813
  -0.000173930193331
  -0.000162505558398
  -0.000133295032163
  -0.000094527782482
  -0.000055755873150
  -0.000023491610818
   0.000000041461006
   0.000015650353159
   0.000025437430533
   0.000031568754617
   0.000035620287802
   0.000038419220560
  -0.000170443694493
  -0.000151806185705
  -0.000121466836696
  -0.000086751351312
  -0.000053944222902
  -0.000026930347456
  -0.000006952940027
   0.000006653446719
   0.000015493176430
   0.000021319441953
   0.000025533947056
   0.000028967715084
  -0.000171181217421
  -0.000144645785772
  -0.000111308870162
  -0.000077842246458
  -0.000048293136461
  -0.000024600129547
  -0.000007022205687
   0.000005310344965
   0.000013847329159
   0.000020124853944
   0.000025365671953
   0.000030296025178
  -0.000173596670222
  -0.000227391698866
  -0.000142762755072
  -0.000006959876038
   0.000094731611720
   0.000168661732984
   0.000231937179869
   0.000302832622443
   0.000396136310053
   0.000516781136752
   0.000648871351161
   0.000752933262331
  -0.000241164128846
  -0.000324581542868
  -0.000228976882048
  -0.000071370230929
   0.000036353666572
   0.000106647796508
   0.000156246016465
   0.000199386045926
   0.000246116343167
   0.000300026255141
   0.000355077055662
   0.000395978951956
  -0.000236019217143
  -0.000274429621667
  -0.000212906136078
  -0.000104159320198
  -0.000012249618059
   0.000050803108117
   0.000092303369265
   0.000121723249768
   0.000146517347156
   0.000170362654616
   0.000192263113004
   0.000207271500452
  -0.000206215709920
  -0.000217838728727
  -0.000179075783544
  -0.000109559167213
  -0.000041293066648
   0.000010434682947
   0.000045203908248
   0.000067797015589
   0.000083293836924
   0.000095106797554
   0.000104296381262
   0.000109954201872
  -0.000178937091220
  -0.000179397279376
  -0.000150615783885
  -0.000103131758954
  -0.000053772215590
  -0.000013443851781
   0.000015069009771
   0.000033581152377
   0.000045252210266
   0.000052828115075
   0.000057902318274
   0.000060947298803
  -0.000159501806582
  -0.000153425663832
  -0.000128810325211
  -0.000093101884509
  -0.000056022588892
  -0.000024559255620
  -0.000001302255655
   0.000014323163617
   0.000024263076313
   0.000030573252515
   0.000034761586281
   0.000037631015946
  -0.000146828058249
  -0.000135869351874
  -0.000112296550945
  -0.000082438934292
  -0.000052615627574
  -0.000027160784340
  -0.000007802312992
   0.000005751542348
   0.000014835216231
   0.000021006703193
   0.000025530440410
   0.000029170640839
  -0.000137298350308
  -0.000122383704040
  -0.000098470372752
  -0.000071476523107
  -0.000045851652799
  -0.000024221789838
  -0.000007474238356
   0.000004791482359
   0.000013686441565
   0.000020493131059
   0.000026256526444
   0.000031605526567
  -0.000178418881056
  -0.000227340285739
  -0.000159212890982
  -0.000033586013494
   0.000065421686139
   0.000137181143857
   0.000195579962795
   0.000256117551927
   0.000331320328400
   0.000425600893699
   0.000528030155239
   0.000610939970158
  -0.000234302339116
  -0.000300190277538
  -0.000228675117629
  -0.000090060499086
   0.000013355514465
   0.000082249998708
   0.000129917902876
   0.000168930757070
   0.000208504190579
   0.000252410428256
   0.000296813505695
   0.000330685072201
  -0.000230567006199
  -0.000262441121241
  -0.000211956039417
  -0.000115218560738
  -0.000028053843869
   0.000033371064002
   0.000073953542561
   0.000102040554709
   0.000124563792248
   0.000145258084367
   0.000163900957998
   0.000176954959723
  -0.000199881738920
  -0.000212411539965
  -0.000178849851040
  -0.000115514394640
  -0.000051242817520
  -0.000001414695952
   0.000032605232513
   0.000054863216181
   0.000070008915263
   0.000081307023817
   0.000089952874361
   0.000095399880470
  -0.000169131096477
  -0.000172283260767
  -0.000148073886655
  -0.000105432820282
  -0.000059712894273
  -0.000021455044758
   0.000006215617226
   0.000024636380078
   0.000036579161948
   0.000044528571718
   0.000049948951437
   0.000053292943003
  -0.000145058500506
  -0.000143002808910
  -0.000123564121016
  -0.000092789408930
  -0.000059436262536
  -0.000030222418151
  -0.000007951225124
   0.000007574446617
   0.000017930996625
   0.000024861589567
   0.000029631402488
   0.000032892122127
  -0.000127004946388
  -0.000121864427159
  -0.000104678634474
  -0.000080370116748
  -0.000054580596307
  -0.000031563177240
  -0.000013303823722
   0.000000120722422
   0.000009671243215
   0.000016559726098
   0.000021757214074
   0.000025834922298
  -0.000111942677408
  -0.000105130284328
  -0.000089122110528
  -0.000068450399400
  -0.000047190354274
  -0.000028120236851
  -0.000012483031417
  -0.000000274796523
   0.000009221312119
   0.000016907356844
   0.000023506984301
   0.000029419602856
  -0.000175482480181
  -0.000198310677742
  -0.000153026185983
  -0.000064134677786
   0.000020853664709
   0.000087659030360
   0.000141312192399
   0.000192352634494
   0.000250465274053
   0.000319639442928
   0.000393606950607
   0.000455140186966
  -0.000211692908187
  -0.000238998098158
  -0.000194585054975
  -0.000103861925776
  -0.000018770814003
   0.000044501440700
   0.000089701162085
   0.000125182891352
   0.000158377253961
   0.000192918422856
   0.000226956486356
   0.000253495602329
  -0.000209927796654
  -0.000229005602674
  -0.000193055446531
  -0.000120751129991
  -0.000048437777929
   0.000007080845501
   0.000045634824574
   0.000072563958378
   0.000093396532324
   0.000111532354970
   0.000127336363410
   0.000138598962123
  -0.000185474287696
  -0.000195196063814
  -0.000169125713057
  -0.000118259885209
  -0.000063771720823
  -0.000019057961443
   0.000012980986963
   0.000034742221701
   0.000049852596537
   0.000061103224646
   0.000069648140651
   0.000075211450674
  -0.000156995723237
  -0.000160742219629
  -0.000141846713283
  -0.000106895928300
  -0.000067833039660
  -0.000033728964406
  -0.000007959937774
   0.000010032027678
   0.000022324093443
   0.000030911181869
   0.000036975585190
   0.000040873059683
  -0.000132342489731
  -0.000132728550253
  -0.000118296343296
  -0.000093508188322
  -0.000065384864399
  -0.000039716092268
  -0.000019265987800
  -0.000004236854864
   0.000006455494068
   0.000014102448439
   0.000019625958934
   0.000023468954450
  -0.000112482073445
  -0.000111174251272
  -0.000099454199401
  -0.000080814594654
  -0.000059769072061
  -0.000040019777767
  -0.000023520059597
  -0.000010615329676
  -0.000000740111821
   0.000006899401129
   0.000012918102482
   0.000017626858975
  -0.000095693537636
  -0.000093929127455
  -0.000084065675035
  -0.000069199014875
  -0.000052568849335
  -0.000036626089173
  -0.000022633484114
  -0.000010820559103
  -0.000000838378337
   0.000007797324798
   0.000015419205416
   0.000022094845675
  -0.000179619548627
  -0.000190440414105
  -0.000157436594183
  -0.000093529522089
  -0.000024436019405
   0.000034949458637
   0.000083359922775
   0.000126442611492
   0.000170959957699
   0.000220401271412
   0.000271858610705
   0.000315564892352
  -0.000198133201118
  -0.000210095118821
  -0.000178649340789
  -0.000116669251129
  -0.000050417843385
   0.000004563315540
   0.000046090527036
   0.000078307536679
   0.000106450279102
   0.000133669094265
   0.000159445742490
   0.000179778022130
  -0.000192933106082
  -0.000202586588944
  -0.000176382078546
  -0.000124676750093
  -0.000068306679171
  -0.000020915275992
   0.000014277236547
   0.000039682880813
   0.000059124271347
   0.000075363942415
   0.000089039936988
   0.000098900065487
  -0.000171793825819
  -0.000177751450999
  -0.000158004902063
  -0.000119594798511
  -0.000076282552787
  -0.000038403133960
  -0.000009587530680
   0.000011009661333
   0.000025827198763
   0.000036986320892
   0.000045450658733
   0.000051109172507
  -0.000146139722889
  -0.000149270026530
  -0.000135067403623
  -0.000108100060174
  -0.000076781147742
  -0.000048144459606
  -0.000025409915694
  -0.000008687509659
   0.000003349125547
   0.000012117004396
   0.000018480253602
   0.000022705607947
  -0.000122619605326
  -0.000124197859633
  -0.000114088861320
  -0.000095391636968
  -0.000073246602555
  -0.000052185710053
  -0.000034641900517
  -0.000021070232487
  -0.000010850375467
  -0.000003143843398
   0.000002659282630
   0.000006841448567
  -0.000103045261347
  -0.000104118978760
  -0.000096945074495
  -0.000083841529950
  -0.000068101924724
  -0.000052597320021
  -0.000038959116052
  -0.000027611021008
  -0.000018294627633
  -0.000010577877871
  -0.000004147095561
   0.000001091704957
  -0.000086730916735
  -0.000088141837485
  -0.000083204638193
  -0.000073860848055
  -0.000062385106147
  -0.000050577655335
  -0.000039385903909
  -0.000029037717199
  -0.000019405492026
  -0.000010337767028
  -0.000001870033811
   0.000005723102795
:DG:
  -0.000311773282204
  -0.000371085045827
  -0.000256502452040
  -0.000058432619410
   0.000115025954318
   0.000250101590081
   0.000369275673428
   0.000503359741829
   0.000679838698825
   0.000908376598954
   0.001157915593756
   0.001349849366500
  -0.000401421206535
  -0.000487237561429
  -0.000367378589553
  -0.000151790878764
   0.000026126942816
   0.000151885948669
   0.000244506132967
   0.000326460173809
   0.000415301753184
   0.000517168288696
   0.000620109621510
   0.000694633731160
  -0.000398344964817
  -0.000445028294016
  -0.000358643839542
  -0.000194272136594
  -0.000043022358970
   0.000066918998853
   0.000142218296586
   0.000197193986096
   0.000244254736450
   0.000289529851128
   0.000330750698446
   0.000358466789216
  -0.000351281709556
  -0.000368032736779
  -0.000306691573741
  -0.000194798061924
  -0.000081402325992
   0.000007268357161
   0.000068508624573
   0.000109326952125
   0.000138007111531
   0.000160241072529
   0.000177666465798
   0.000188462056914
  -0.000304172631647
  -0.000304178475793
  -0.000256535583871
  -0.000178041461888
  -0.000095459314286
  -0.000026992350234
   0.000022095015507
   0.000054400827537
   0.000075077814483
   0.000088744143624
   0.000098091152386
   0.000103889073116
  -0.000269743041005
  -0.000259001160246
  -0.000217421599259
  -0.000157498944249
  -0.000095207968198
  -0.000042133393412
  -0.000002755721597
   0.000023752282752
   0.000040619047794
   0.000051353121584
   0.000058576529268
   0.000063709171672
  -0.000247220221802
  -0.000228189986298
  -0.000187986314852
  -0.000137539760252
  -0.000087379564551
  -0.000044694682263
  -0.000012362396671
   0.000010093093697
   0.000024945602210
   0.000034911222402
   0.000042250459815
   0.000048352751128
  -0.000230518286888
  -0.000204646112616
  -0.000163734938369
  -0.000118075898268
  -0.000075079623210
  -0.000039076183784
  -0.000011506083271
   0.000008322438673
   0.000022338004849
   0.000032828933704
   0.000041715012309
   0.000050190424258
  -0.000369409703261
  -0.000499061254912
  -0.000351438133827
  -0.000088709026469
   0.000105613093295
   0.000243223211798
   0.000356089224287
   0.000476787329446
   0.000631327116714
   0.000828948338042
   0.001044553538937
   0.001214350946448
  -0.000480250613202
  -0.000664531773742
  -0.000496194035813
  -0.000193047770744
   0.000012516617838
   0.000144747458780
   0.000235786514132
   0.000311799134640
   0.000391100840830
   0.000480712696312
   0.000571488338496
   0.000638903433545
  -0.000444257988512
  -0.000529491326964
  -0.000425503129802
  -0.000226655462973
  -0.000056819290767
   0.000059616701974
   0.000135746271094
   0.000188763258634
   0.000232170015192
   0.000272860454690
   0.000309754340625
   0.000335083529398
  -0.000367014920610
  -0.000396287296186
  -0.000333938082096
  -0.000212941371059
  -0.000091712453906
   0.000000889926869
   0.000063389266182
   0.000104012773710
   0.000131683443710
   0.000152497710525
   0.000168547057260
   0.000178562331998
  -0.000300947898672
  -0.000308426094729
  -0.000264381969365
  -0.000185618515067
  -0.000101477398051
  -0.000031731566830
   0.000018086039210
   0.000050721796472
   0.000071459801575
   0.000084998654529
   0.000094134508920
   0.000099776186064
  -0.000253035182313
  -0.000249666456833
  -0.000214233773901
  -0.000158104801450
  -0.000097621332675
  -0.000045167948631
  -0.000005783556274
   0.000021041691752
   0.000038337513116
   0.000049470780198
   0.000056974568470
   0.000062238466470
  -0.000218860851584
  -0.000209321436240
  -0.000177759086793
  -0.000133563588176
  -0.000087176202261
  -0.000046340072914
  -0.000014585838861
   0.000008052549863
   0.000023471484718
   0.000034104823354
   0.000042006608125
   0.000048461065696
  -0.000191056220558
  -0.000178293102670
  -0.000148747965287
  -0.000111208854021
  -0.000073213505284
  -0.000039785737921
  -0.000013123863804
   0.000006854381031
   0.000021608832090
   0.000033056703834
   0.000042845187061
   0.000052010920732
  -0.000368871094657
  -0.000481689639852
  -0.000365660413888
  -0.000126933173594
   0.000060344935557
   0.000193372901656
   0.000297902756587
   0.000401625715419
   0.000526675567431
   0.000681344777300
   0.000848554029252
   0.000983720529942
  -0.000459531843756
  -0.000602512133628
  -0.000479906721692
  -0.000217840973949
  -0.000022536288445
   0.000106295000217
   0.000193767908117
   0.000262919487212
   0.000330527558230
   0.000403832790451
   0.000477235291602
   0.000533135140933
  -0.000431477855711
  -0.000501393293070
  -0.000416844117629
  -0.000241246214680
  -0.000080966365913
   0.000032094299147
   0.000106457311078
   0.000157218898251
   0.000196914790581
   0.000232482336717
   0.000264078059040
   0.000286216897434
  -0.000356834949647
  -0.000386324484941
  -0.000332154437447
  -0.000221691124764
  -0.000107390393520
  -0.000018072932156
   0.000043155909536
   0.000083252022965
   0.000110394436860
   0.000130420876511
   0.000145632159993
   0.000155337529155
  -0.000287833290151
  -0.000298756762438
  -0.000261379273092
  -0.000190017438376
  -0.000111518182148
  -0.000044952387234
   0.000003644586465
   0.000036257023633
   0.000057547895272
   0.000071796094849
   0.000081585718201
   0.000087783745317
  -0.000235042481298
  -0.000236772227164
  -0.000208438047515
  -0.000159331058722
  -0.000104228905910
  -0.000054992866882
  -0.000016915139330
   0.000009961310645
   0.000028106165860
   0.000040397622722
   0.000048976994848
   0.000054977452706
  -0.000195465821157
  -0.000192843603576
  -0.000169517303535
  -0.000132799576578
  -0.000091964573023
  -0.000054462397078
  -0.000024096836424
  -0.000001395286183
   0.000014994990458
   0.000026975824551
   0.000036130100833
   0.000043416660151
  -0.000162969714412
  -0.000159059322724
  -0.000139071174901
  -0.000109633424077
  -0.000077411216995
  -0.000047369060358
  -0.000022050761042
  -0.000001866141151
   0.000014090638560
   0.000027159336212
   0.000038473593536
   0.000048685343376
  -0.000342897091128
  -0.000394361969683
  -0.000318840361327
  -0.000158173852096
  -0.000003237669317
   0.000117576543186
   0.000212565954909
   0.000300096444646
   0.000397080360675
   0.000510841184178
   0.000631727839215
   0.000732061529916
  -0.000400258062288
  -0.000459601358365
  -0.000385513179556
  -0.000221465556741
  -0.000065946130536
   0.000049456096226
   0.000131028504012
   0.000193640454322
   0.000250557915514
   0.000308527756050
   0.000365049665794
   0.000409011468737
  -0.000384144726564
  -0.000425594222642
  -0.000366239014433
  -0.000237851260823
  -0.000107541794409
  -0.000007119649692
   0.000062522651846
   0.000110777359037
   0.000147483226860
   0.000178832426153
   0.000205835221133
   0.000225104407958
  -0.000327946576324
  -0.000350184753492
  -0.000308160306597
  -0.000220126658490
  -0.000124045477639
  -0.000044546120045
   0.000012681026417
   0.000051630120715
   0.000078620819785
   0.000098608545124
   0.000113758079463
   0.000123765541683
  -0.000267857345486
  -0.000278364377106
  -0.000249012882039
  -0.000190377873457
  -0.000123248098796
  -0.000063889182782
  -0.000018627709021
   0.000013225692456
   0.000035152532292
   0.000050590933030
   0.000061622421328
   0.000068907943338
  -0.000217650991663
  -0.000222053980082
  -0.000200808742896
  -0.000160815140350
  -0.000113932469822
  -0.000070328802729
  -0.000035101607207
  -0.000008883909776
   0.000010013924290
   0.000023728426435
   0.000033812386719
   0.000041012595147
  -0.000178145789592
  -0.000179944369521
  -0.000163915570181
  -0.000135271300934
  -0.000101425155587
  -0.000068790321406
  -0.000040973570810
  -0.000018838298453
  -0.000001619730522
   0.000011914775771
   0.000022744894860
   0.000031358705581
  -0.000145794848156
  -0.000147387202283
  -0.000135135606282
  -0.000113549394510
  -0.000087852394441
  -0.000062284654331
  -0.000039236730383
  -0.000019361960778
  -0.000002276126535
   0.000012702467215
   0.000026050822184
   0.000037833044132
  -0.000331088955363
  -0.000354765689983
  -0.000299993072586
  -0.000188528562279
  -0.000066757810370
   0.000037789996960
   0.000122150295539
   0.000195799314681
   0.000270337077421
   0.000351973342753
   0.000436346925190
   0.000507794295068
  -0.000359235628041
  -0.000385127784848
  -0.000333055922909
  -0.000224678533182
  -0.000107367373277
  -0.000009772885453
   0.000063653769526
   0.000119959564514
   0.000168272057625
   0.000214253122415
   0.000257404749827
   0.000291376215902
  -0.000343124285037
  -0.000364210328147
  -0.000321186952367
  -0.000231379716392
  -0.000132032457674
  -0.000048032058445
   0.000014447301862
   0.000059438201005
   0.000093604751782
   0.000121873064701
   0.000145558916255
   0.000162730760733
  -0.000298879702646
  -0.000312584980611
  -0.000280753053213
  -0.000214982083047
  -0.000139494761644
  -0.000072881086927
  -0.000021897459358
   0.000014724325602
   0.000041175742182
   0.000061183242041
   0.000076493635378
   0.000086970604793
  -0.000248237420232
  -0.000256452068972
  -0.000234289103224
  -0.000189090285113
  -0.000135376324118
  -0.000085609042196
  -0.000045673719648
  -0.000015964389132
   0.000005724478179
   0.000021820791722
   0.000033802766374
   0.000042082110668
  -0.000203171263948
  -0.000208509406838
  -0.000193583102148
  -0.000163209008735
  -0.000126051862322
  -0.000090012507225
  -0.000059487261437
  -0.000035442608681
  -0.000016927296059
  -0.000002573959434
   0.000008587042074
   0.000016927685705
  -0.000166566489282
  -0.000171094145310
  -0.000161458154876
  -0.000141130518290
  -0.000115513469568
  -0.000089530678590
  -0.000066113246782
  -0.000046142752386
  -0.000029305866031
  -0.000014975346898
  -0.000002739080220
   0.000007412399344
  -0.000136948929067
  -0.000142204909166
  -0.000136648886827
  -0.000123102881449
  -0.000105200203823
  -0.000085982071923
  -0.000067155895726
  -0.000049236488902
  -0.000032132652936
  -0.000015717078709
  -0.000000198412025
   0.000013795576397
:IYS:
  48.842240853070173
 187.770086081527893
52091.346487989183515
10568.274204647210354
16095.619607503707812
9998.098707710976669
37379.718629295050050
179245.038852836180013
579282.325919970870018
1078627.268937879940495
382906.539600505493581
48401.328290627556271
106974.502659689242137
5012690.303877137601376
4364751.430981867015362
4098146.629555376712233
2273673.962691912427545
1469867.231856049504131
3293472.445079637691379
42942643.072827249765396
:FOLD:
  -0.000000000480345
  -0.000000001869011
  -0.000000001702837
  -0.000000000940390
   0.000000000649893
   0.000000000782763
  -0.000000000520704
   0.000000000483905
   0.000000001493127
   0.000000001205984
  -0.000000000386370
   0.000000000420393
  -0.000000000777714
  -0.000000006226745
  -0.000000002791931
  -0.000000000179104
  -0.000000002346181
  -0.000000000394215
   0.000000001213383
  -0.000000000410841
  -0.000000000775018
  -0.000000000605292
  -0.000000000644288
   0.000000001248561
:RDISP:
   0.000000206113336
   0.000000244997716
   0.000000055863398
  -0.000000051644750
   0.000000325565803
   0.000000342485874
  -0.000000088677186
   0.000000154415697
   0.000000369829209
   0.000000158108893
  -0.000000458026011
  -0.000000277482510
   0.000000030076432
  -0.000000816877445
   0.000000502670466
   0.000000884090439
  -0.000000178126078
   0.000000197920212
   0.000000544149849
  -0.000000059777519
  -0.000000262814188
  -0.000000295167484
  -0.000000375365113
   0.000000169418834
