H     ONCVPSP-3.3.1  r_core=   0.50544
      1.0000      1.0000      230920    zatom,zion,pspd
     8      11   0     0  3000     0    pspcod,pspxc,lmax,lloc,mmax,r2well
  5.99800000  0.00000000  0.00000000    rchrg fchrg qchrg
     0     0     0     0     0    nproj
     1     1           extension_switch
   0
     1  0.0000000000000E+00 -5.9472141632810E+00
     2  2.0000000000000E-03 -5.9485935220742E+00
     3  4.0000000000000E-03 -5.9527289880750E+00
     4  6.0000000000000E-03 -5.9596056763733E+00
     5  8.0000000000000E-03 -5.9691994215572E+00
     6  1.0000000000000E-02 -5.9814766506973E+00
     7  1.2000000000000E-02 -5.9963944185078E+00
     8  1.4000000000000E-02 -6.0139005437189E+00
     9  1.6000000000000E-02 -6.0339337856990E+00
    10  1.8000000000000E-02 -6.0564240544627E+00
    11  2.0000000000000E-02 -6.0812926520582E+00
    12  2.2000000000000E-02 -6.1084525443036E+00
    13  2.4000000000000E-02 -6.1378086619470E+00
    14  2.6000000000000E-02 -6.1692582304161E+00
    15  2.8000000000000E-02 -6.2026911269701E+00
    16  3.0000000000000E-02 -6.2379902642622E+00
    17  3.2000000000000E-02 -6.2750319990459E+00
    18  3.4000000000000E-02 -6.3136865646147E+00
    19  3.6000000000000E-02 -6.3538185257141E+00
    20  3.8000000000000E-02 -6.3952872540686E+00
    21  4.0000000000000E-02 -6.4379474230676E+00
    22  4.2000000000000E-02 -6.4816495196679E+00
    23  4.4000000000000E-02 -6.5262403716034E+00
    24  4.6000000000000E-02 -6.5715636878235E+00
    25  4.8000000000000E-02 -6.6174606099320E+00
    26  5.0000000000000E-02 -6.6637702725969E+00
    27  5.2000000000000E-02 -6.7103303700775E+00
    28  5.4000000000000E-02 -6.7569777269221E+00
    29  5.6000000000000E-02 -6.8035488699310E+00
    30  5.8000000000000E-02 -6.8498805988970E+00
    31  6.0000000000000E-02 -6.8958105535983E+00
    32  6.2000000000000E-02 -6.9411777742619E+00
    33  6.4000000000000E-02 -6.9858232529292E+00
    34  6.6000000000000E-02 -7.0295904732070E+00
    35  6.8000000000000E-02 -7.0723259357759E+00
    36  7.0000000000000E-02 -7.1138796673235E+00
    37  7.2000000000000E-02 -7.1541057106887E+00
    38  7.4000000000000E-02 -7.1928625938274E+00
    39  7.6000000000000E-02 -7.2300137759468E+00
    40  7.8000000000000E-02 -7.2654280689467E+00
    41  8.0000000000000E-02 -7.2989800324293E+00
    42  8.2000000000000E-02 -7.3305503413267E+00
    43  8.4000000000000E-02 -7.3600261248735E+00
    44  8.6000000000000E-02 -7.3873012760401E+00
    45  8.8000000000000E-02 -7.4122767310967E+00
    46  9.0000000000000E-02 -7.4348607186951E+00
    47  9.2000000000000E-02 -7.4549689786799E+00
    48  9.4000000000000E-02 -7.4725249503814E+00
    49  9.6000000000000E-02 -7.4874599309762E+00
    50  9.8000000000000E-02 -7.4997132042536E+00
    51  1.0000000000000E-01 -7.5092321404978E+00
    52  1.0200000000000E-01 -7.5159722680370E+00
    53  1.0400000000000E-01 -7.5198973174617E+00
    54  1.0600000000000E-01 -7.5209792393922E+00
    55  1.0800000000000E-01 -7.5191981965982E+00
    56  1.1000000000000E-01 -7.5145425315118E+00
    57  1.1200000000000E-01 -7.5070087100108E+00
    58  1.1400000000000E-01 -7.4966012425986E+00
    59  1.1600000000000E-01 -7.4833325833817E+00
    60  1.1800000000000E-01 -7.4672230082993E+00
    61  1.2000000000000E-01 -7.4483004729120E+00
    62  1.2200000000000E-01 -7.4266004506037E+00
    63  1.2400000000000E-01 -7.4021657521277E+00
    64  1.2600000000000E-01 -7.3750463265966E+00
    65  1.2800000000000E-01 -7.3452990451263E+00
    66  1.3000000000000E-01 -7.3129874671527E+00
    67  1.3200000000000E-01 -7.2781815901935E+00
    68  1.3400000000000E-01 -7.2409575837003E+00
    69  1.3600000000000E-01 -7.2013975070749E+00
    70  1.3800000000000E-01 -7.1595890129804E+00
    71  1.4000000000000E-01 -7.1156250358047E+00
    72  1.4200000000000E-01 -7.0696034666564E+00
    73  1.4400000000000E-01 -7.0216268146638E+00
    74  1.4600000000000E-01 -6.9718018560803E+00
    75  1.4800000000000E-01 -6.9202392712562E+00
    76  1.5000000000000E-01 -6.8670532709024E+00
    77  1.5200000000000E-01 -6.8123612119067E+00
    78  1.5400000000000E-01 -6.7562832043461E+00
    79  1.5600000000000E-01 -6.6989417101018E+00
    80  1.5800000000000E-01 -6.6404611346254E+00
    81  1.6000000000000E-01 -6.5809674128989E+00
    82  1.6200000000000E-01 -6.5205875907766E+00
    83  1.6400000000000E-01 -6.4594494031376E+00
    84  1.6600000000000E-01 -6.3976808501772E+00
    85  1.6800000000000E-01 -6.3354097733390E+00
    86  1.7000000000000E-01 -6.2727634321304E+00
    87  1.7200000000000E-01 -6.2098680837340E+00
    88  1.7400000000000E-01 -6.1468485665007E+00
    89  1.7600000000000E-01 -6.0838278892258E+00
    90  1.7800000000000E-01 -6.0209268275572E+00
    91  1.8000000000000E-01 -5.9582635291610E+00
    92  1.8200000000000E-01 -5.8959531292451E+00
    93  1.8400000000000E-01 -5.8341073777721E+00
    94  1.8600000000000E-01 -5.7728342800709E+00
    95  1.8800000000000E-01 -5.7122377521866E+00
    96  1.9000000000000E-01 -5.6524172922360E+00
    97  1.9200000000000E-01 -5.5934676694075E+00
    98  1.9400000000000E-01 -5.5354786315635E+00
    99  1.9600000000000E-01 -5.4785346327675E+00
   100  1.9800000000000E-01 -5.4227145819457E+00
   101  2.0000000000000E-01 -5.3680916134880E+00
   102  2.0200000000000E-01 -5.3147328808812E+00
   103  2.0400000000000E-01 -5.2626993741967E+00
   104  2.0600000000000E-01 -5.2120457619891E+00
   105  2.0800000000000E-01 -5.1628202585168E+00
   106  2.1000000000000E-01 -5.1150645165015E+00
   107  2.1200000000000E-01 -5.0688135459716E+00
   108  2.1400000000000E-01 -5.0240956594837E+00
   109  2.1600000000000E-01 -4.9809324438350E+00
   110  2.1800000000000E-01 -4.9393387582375E+00
   111  2.2000000000000E-01 -4.8993227591094E+00
   112  2.2200000000000E-01 -4.8608859510595E+00
   113  2.2400000000000E-01 -4.8240232638478E+00
   114  2.2600000000000E-01 -4.7887231549981E+00
   115  2.2800000000000E-01 -4.7549677373948E+00
   116  2.3000000000000E-01 -4.7227329312928E+00
   117  2.3200000000000E-01 -4.6919886400162E+00
   118  2.3400000000000E-01 -4.6626989485177E+00
   119  2.3600000000000E-01 -4.6348223437792E+00
   120  2.3800000000000E-01 -4.6083119561295E+00
   121  2.4000000000000E-01 -4.5831158203420E+00
   122  2.4200000000000E-01 -4.5591771552428E+00
   123  2.4400000000000E-01 -4.5364346606892E+00
   124  2.4600000000000E-01 -4.5148228305209E+00
   125  2.4800000000000E-01 -4.4942722800718E+00
   126  2.5000000000000E-01 -4.4747100868336E+00
   127  2.5200000000000E-01 -4.4560601427775E+00
   128  2.5400000000000E-01 -4.4382435168256E+00
   129  2.5600000000000E-01 -4.4211788258282E+00
   130  2.5800000000000E-01 -4.4047826125400E+00
   131  2.6000000000000E-01 -4.3889697290199E+00
   132  2.6200000000000E-01 -4.3736537237263E+00
   133  2.6400000000000E-01 -4.3587472307872E+00
   134  2.6600000000000E-01 -4.3441623598599E+00
   135  2.6800000000000E-01 -4.3298110849046E+00
   136  2.7000000000000E-01 -4.3156056303528E+00
   137  2.7200000000000E-01 -4.3014588531125E+00
   138  2.7400000000000E-01 -4.2872846188834E+00
   139  2.7600000000000E-01 -4.2729981713583E+00
   140  2.7800000000000E-01 -4.2585164927672E+00
   141  2.8000000000000E-01 -4.2437586544711E+00
   142  2.8200000000000E-01 -4.2286461562796E+00
   143  2.8400000000000E-01 -4.2131032531074E+00
   144  2.8600000000000E-01 -4.1970572679067E+00
   145  2.8800000000000E-01 -4.1804388895685E+00
   146  2.9000000000000E-01 -4.1631824548252E+00
   147  2.9200000000000E-01 -4.1452262131285E+00
   148  2.9400000000000E-01 -4.1265125734338E+00
   149  2.9600000000000E-01 -4.1069883322615E+00
   150  2.9800000000000E-01 -4.0866048819524E+00
   151  3.0000000000000E-01 -4.0653183987122E+00
   152  3.0200000000000E-01 -4.0430900095358E+00
   153  3.0400000000000E-01 -4.0198859376325E+00
   154  3.0600000000000E-01 -3.9956776258742E+00
   155  3.0800000000000E-01 -3.9704418377173E+00
   156  3.1000000000000E-01 -3.9441607356035E+00
   157  3.1200000000000E-01 -3.9168219361685E+00
   158  3.1400000000000E-01 -3.8884185426954E+00
   159  3.1600000000000E-01 -3.8589491541302E+00
   160  3.1800000000000E-01 -3.8284178513418E+00
   161  3.2000000000000E-01 -3.7968341601198E+00
   162  3.2200000000000E-01 -3.7642129916726E+00
   163  3.2400000000000E-01 -3.7305745604930E+00
   164  3.2600000000000E-01 -3.6959442802891E+00
   165  3.2800000000000E-01 -3.6603526381889E+00
   166  3.3000000000000E-01 -3.6238350479600E+00
   167  3.3200000000000E-01 -3.5864316827803E+00
   168  3.3400000000000E-01 -3.5481872882950E+00
   169  3.3600000000000E-01 -3.5091509767782E+00
   170  3.3800000000000E-01 -3.4693760032230E+00
   171  3.4000000000000E-01 -3.4289195243850E+00
   172  3.4200000000000E-01 -3.3878423417276E+00
   173  3.4400000000000E-01 -3.3462086294356E+00
   174  3.4600000000000E-01 -3.3040856486094E+00
   175  3.4800000000000E-01 -3.2615434488594E+00
   176  3.5000000000000E-01 -3.2186545586572E+00
   177  3.5200000000000E-01 -3.1754936656531E+00
   178  3.5400000000000E-01 -3.1321372885295E+00
   179  3.5600000000000E-01 -3.0886634415543E+00
   180  3.5800000000000E-01 -3.0451512936136E+00
   181  3.6000000000000E-01 -3.0016808228899E+00
   182  3.6200000000000E-01 -2.9583324689996E+00
   183  3.6400000000000E-01 -2.9151867838858E+00
   184  3.6600000000000E-01 -2.8723240831042E+00
   185  3.6800000000000E-01 -2.8298240991381E+00
   186  3.7000000000000E-01 -2.7877656379528E+00
   187  3.7200000000000E-01 -2.7462262408387E+00
   188  3.7400000000000E-01 -2.7052818523712E+00
   189  3.7600000000000E-01 -2.6650064966446E+00
   190  3.7800000000000E-01 -2.6254719626325E+00
   191  3.8000000000000E-01 -2.5867475003567E+00
   192  3.8200000000000E-01 -2.5488995293892E+00
   193  3.8400000000000E-01 -2.5119913600967E+00
   194  3.8600000000000E-01 -2.4760829305111E+00
   195  3.8800000000000E-01 -2.4412305575142E+00
   196  3.9000000000000E-01 -2.4074867063656E+00
   197  3.9200000000000E-01 -2.3748997766490E+00
   198  3.9400000000000E-01 -2.3435139077607E+00
   199  3.9600000000000E-01 -2.3133688037340E+00
   200  3.9800000000000E-01 -2.2844995775818E+00
   201  4.0000000000000E-01 -2.2569366180303E+00
   202  4.0200000000000E-01 -2.2307054753547E+00
   203  4.0400000000000E-01 -2.2058267714304E+00
   204  4.0600000000000E-01 -2.1823161299836E+00
   205  4.0800000000000E-01 -2.1601841299757E+00
   206  4.1000000000000E-01 -2.1394362819535E+00
   207  4.1200000000000E-01 -2.1200730249933E+00
   208  4.1400000000000E-01 -2.1020897486866E+00
   209  4.1600000000000E-01 -2.0854768346831E+00
   210  4.1800000000000E-01 -2.0702197218293E+00
   211  4.2000000000000E-01 -2.0562989925415E+00
   212  4.2200000000000E-01 -2.0436904788855E+00
   213  4.2400000000000E-01 -2.0323653915020E+00
   214  4.2600000000000E-01 -2.0222904657912E+00
   215  4.2800000000000E-01 -2.0134281288627E+00
   216  4.3000000000000E-01 -2.0057366844620E+00
   217  4.3200000000000E-01 -1.9991705138856E+00
   218  4.3400000000000E-01 -1.9936802954928E+00
   219  4.3600000000000E-01 -1.9892132374773E+00
   220  4.3800000000000E-01 -1.9857133258442E+00
   221  4.4000000000000E-01 -1.9831215858215E+00
   222  4.4200000000000E-01 -1.9813763535921E+00
   223  4.4400000000000E-01 -1.9804135604528E+00
   224  4.4600000000000E-01 -1.9801670250912E+00
   225  4.4800000000000E-01 -1.9805687539429E+00
   226  4.5000000000000E-01 -1.9815492487031E+00
   227  4.5200000000000E-01 -1.9830378184857E+00
   228  4.5400000000000E-01 -1.9849628960831E+00
   229  4.5600000000000E-01 -1.9872523565647E+00
   230  4.5800000000000E-01 -1.9898338371719E+00
   231  4.6000000000000E-01 -1.9926350562439E+00
   232  4.6200000000000E-01 -1.9955841308717E+00
   233  4.6400000000000E-01 -1.9986098915715E+00
   234  4.6600000000000E-01 -2.0016421913660E+00
   235  4.6800000000000E-01 -2.0046122104961E+00
   236  4.7000000000000E-01 -2.0074527531810E+00
   237  4.7200000000000E-01 -2.0100985351533E+00
   238  4.7400000000000E-01 -2.0124864639863E+00
   239  4.7600000000000E-01 -2.0145559062012E+00
   240  4.7800000000000E-01 -2.0162489388876E+00
   241  4.8000000000000E-01 -2.0175106096239E+00
   242  4.8200000000000E-01 -2.0182891515317E+00
   243  4.8400000000000E-01 -2.0185362359209E+00
   244  4.8600000000000E-01 -2.0182069824834E+00
   245  4.8800000000000E-01 -2.0172589913490E+00
   246  4.9000000000000E-01 -2.0156515377264E+00
   247  4.9200000000000E-01 -2.0133644946548E+00
   248  4.9400000000000E-01 -2.0103789679864E+00
   249  4.9600000000000E-01 -2.0066730957006E+00
   250  4.9800000000000E-01 -2.0021626973772E+00
   251  5.0000000000000E-01 -1.9968026051176E+00
   252  5.0200000000000E-01 -1.9906064719588E+00
   253  5.0400000000000E-01 -1.9837352442984E+00
   254  5.0600000000000E-01 -1.9763644869277E+00
   255  5.0800000000000E-01 -1.9686885867027E+00
   256  5.1000000000000E-01 -1.9608832095774E+00
   257  5.1200000000000E-01 -1.9531083069914E+00
   258  5.1400000000000E-01 -1.9454740222267E+00
   259  5.1600000000000E-01 -1.9379560312183E+00
   260  5.1800000000000E-01 -1.9305168418701E+00
   261  5.2000000000000E-01 -1.9230961542667E+00
   262  5.2200000000000E-01 -1.9157207614361E+00
   263  5.2400000000000E-01 -1.9083961266903E+00
   264  5.2600000000000E-01 -1.9011393839972E+00
   265  5.2800000000000E-01 -1.8939395215404E+00
   266  5.3000000000000E-01 -1.8867947490756E+00
   267  5.3200000000000E-01 -1.8797021744719E+00
   268  5.3400000000000E-01 -1.8726619294726E+00
   269  5.3600000000000E-01 -1.8656737727127E+00
   270  5.3800000000000E-01 -1.8587378880174E+00
   271  5.4000000000000E-01 -1.8518536455643E+00
   272  5.4200000000000E-01 -1.8450203331900E+00
   273  5.4400000000000E-01 -1.8382372463052E+00
   274  5.4600000000000E-01 -1.8315037843424E+00
   275  5.4800000000000E-01 -1.8248194537830E+00
   276  5.5000000000000E-01 -1.8181837317811E+00
   277  5.5200000000000E-01 -1.8115961067639E+00
   278  5.5400000000000E-01 -1.8050560472010E+00
   279  5.5600000000000E-01 -1.7985630394265E+00
   280  5.5800000000000E-01 -1.7921165753662E+00
   281  5.6000000000000E-01 -1.7857161574526E+00
   282  5.6200000000000E-01 -1.7793612941180E+00
   283  5.6400000000000E-01 -1.7730515007634E+00
   284  5.6600000000000E-01 -1.7667862996125E+00
   285  5.6800000000000E-01 -1.7605652196117E+00
   286  5.7000000000000E-01 -1.7543877963308E+00
   287  5.7200000000000E-01 -1.7482535718359E+00
   288  5.7400000000000E-01 -1.7421620945690E+00
   289  5.7600000000000E-01 -1.7361129192465E+00
   290  5.7800000000000E-01 -1.7301056067470E+00
   291  5.8000000000000E-01 -1.7241397240069E+00
   292  5.8200000000000E-01 -1.7182148439151E+00
   293  5.8400000000000E-01 -1.7123305452114E+00
   294  5.8600000000000E-01 -1.7064864123864E+00
   295  5.8800000000000E-01 -1.7006820355841E+00
   296  5.9000000000000E-01 -1.6949170105059E+00
   297  5.9200000000000E-01 -1.6891909383164E+00
   298  5.9400000000000E-01 -1.6835034255520E+00
   299  5.9600000000000E-01 -1.6778540840307E+00
   300  5.9800000000000E-01 -1.6722425307631E+00
   301  6.0000000000000E-01 -1.6666683878666E+00
   302  6.0200000000000E-01 -1.6611312824802E+00
   303  6.0400000000000E-01 -1.6556308466815E+00
   304  6.0600000000000E-01 -1.6501667174051E+00
   305  6.0800000000000E-01 -1.6447385363627E+00
   306  6.1000000000000E-01 -1.6393459499652E+00
   307  6.1200000000000E-01 -1.6339886092452E+00
   308  6.1400000000000E-01 -1.6286661697823E+00
   309  6.1600000000000E-01 -1.6233782916292E+00
   310  6.1800000000000E-01 -1.6181246392390E+00
   311  6.2000000000000E-01 -1.6129048813945E+00
   312  6.2200000000000E-01 -1.6077186911385E+00
   313  6.2400000000000E-01 -1.6025657457058E+00
   314  6.2600000000000E-01 -1.5974457264557E+00
   315  6.2800000000000E-01 -1.5923583188068E+00
   316  6.3000000000000E-01 -1.5873032121723E+00
   317  6.3200000000000E-01 -1.5822800998969E+00
   318  6.3400000000000E-01 -1.5772886791946E+00
   319  6.3600000000000E-01 -1.5723286510883E+00
   320  6.3800000000000E-01 -1.5673997203497E+00
   321  6.4000000000000E-01 -1.5625015954409E+00
   322  6.4200000000000E-01 -1.5576339884569E+00
   323  6.4400000000000E-01 -1.5527966150692E+00
   324  6.4600000000000E-01 -1.5479891944702E+00
   325  6.4800000000000E-01 -1.5432114493193E+00
   326  6.5000000000000E-01 -1.5384631056889E+00
   327  6.5200000000000E-01 -1.5337438930129E+00
   328  6.5400000000000E-01 -1.5290535440348E+00
   329  6.5600000000000E-01 -1.5243917947572E+00
   330  6.5800000000000E-01 -1.5197583843926E+00
   331  6.6000000000000E-01 -1.5151530553144E+00
   332  6.6200000000000E-01 -1.5105755530093E+00
   333  6.6400000000000E-01 -1.5060256260306E+00
   334  6.6600000000000E-01 -1.5015030259518E+00
   335  6.6800000000000E-01 -1.4970075073216E+00
   336  6.7000000000000E-01 -1.4925388276194E+00
   337  6.7200000000000E-01 -1.4880967472120E+00
   338  6.7400000000000E-01 -1.4836810293101E+00
   339  6.7600000000000E-01 -1.4792914399270E+00
   340  6.7800000000000E-01 -1.4749277478370E+00
   341  6.8000000000000E-01 -1.4705897245343E+00
   342  6.8200000000000E-01 -1.4662771441938E+00
   343  6.8400000000000E-01 -1.4619897836317E+00
   344  6.8600000000000E-01 -1.4577274222666E+00
   345  6.8800000000000E-01 -1.4534898420822E+00
   346  6.9000000000000E-01 -1.4492768275898E+00
   347  6.9200000000000E-01 -1.4450881657920E+00
   348  6.9400000000000E-01 -1.4409236461469E+00
   349  6.9600000000000E-01 -1.4367830605323E+00
   350  6.9800000000000E-01 -1.4326662032116E+00
   351  7.0000000000000E-01 -1.4285728707993E+00
   352  7.0200000000000E-01 -1.4245028622279E+00
   353  7.0400000000000E-01 -1.4204559787145E+00
   354  7.0600000000000E-01 -1.4164320237288E+00
   355  7.0800000000000E-01 -1.4124308029610E+00
   356  7.1000000000000E-01 -1.4084521242911E+00
   357  7.1200000000000E-01 -1.4044957977575E+00
   358  7.1400000000000E-01 -1.4005616355271E+00
   359  7.1600000000000E-01 -1.3966494518653E+00
   360  7.1800000000000E-01 -1.3927590631073E+00
   361  7.2000000000000E-01 -1.3888902876288E+00
   362  7.2200000000000E-01 -1.3850429458180E+00
   363  7.2400000000000E-01 -1.3812168600479E+00
   364  7.2600000000000E-01 -1.3774118546485E+00
   365  7.2800000000000E-01 -1.3736277558806E+00
   366  7.3000000000000E-01 -1.3698643919088E+00
   367  7.3200000000000E-01 -1.3661215927756E+00
   368  7.3400000000000E-01 -1.3623991903759E+00
   369  7.3600000000000E-01 -1.3586970184322E+00
   370  7.3800000000000E-01 -1.3550149124691E+00
   371  7.4000000000000E-01 -1.3513527097894E+00
   372  7.4200000000000E-01 -1.3477102494502E+00
   373  7.4400000000000E-01 -1.3440873722388E+00
   374  7.4600000000000E-01 -1.3404839206503E+00
   375  7.4800000000000E-01 -1.3368997388640E+00
   376  7.5000000000000E-01 -1.3333346727216E+00
   377  7.5200000000000E-01 -1.3297885697045E+00
   378  7.5400000000000E-01 -1.3262612789126E+00
   379  7.5600000000000E-01 -1.3227526510423E+00
   380  7.5800000000000E-01 -1.3192625383661E+00
   381  7.6000000000000E-01 -1.3157907947113E+00
   382  7.6200000000000E-01 -1.3123372754400E+00
   383  7.6400000000000E-01 -1.3089018374286E+00
   384  7.6600000000000E-01 -1.3054843390485E+00
   385  7.6800000000000E-01 -1.3020846401463E+00
   386  7.7000000000000E-01 -1.2987026020245E+00
   387  7.7200000000000E-01 -1.2953380874235E+00
   388  7.7400000000000E-01 -1.2919909605017E+00
   389  7.7600000000000E-01 -1.2886610868184E+00
   390  7.7800000000000E-01 -1.2853483333152E+00
   391  7.8000000000000E-01 -1.2820525682984E+00
   392  7.8200000000000E-01 -1.2787736614214E+00
   393  7.8400000000000E-01 -1.2755114836679E+00
   394  7.8600000000000E-01 -1.2722659073345E+00
   395  7.8800000000000E-01 -1.2690368060145E+00
   396  7.9000000000000E-01 -1.2658240545812E+00
   397  7.9200000000000E-01 -1.2626275291718E+00
   398  7.9400000000000E-01 -1.2594471071714E+00
   399  7.9600000000000E-01 -1.2562826671977E+00
   400  7.9800000000000E-01 -1.2531340890848E+00
   401  8.0000000000000E-01 -1.2500012538689E+00
   402  8.0200000000000E-01 -1.2468840437727E+00
   403  8.0400000000000E-01 -1.2437823421907E+00
   404  8.0600000000000E-01 -1.2406960336749E+00
   405  8.0800000000000E-01 -1.2376250039203E+00
   406  8.1000000000000E-01 -1.2345691397510E+00
   407  8.1200000000000E-01 -1.2315283291058E+00
   408  8.1400000000000E-01 -1.2285024610253E+00
   409  8.1600000000000E-01 -1.2254914256374E+00
   410  8.1800000000000E-01 -1.2224951141450E+00
   411  8.2000000000000E-01 -1.2195134188122E+00
   412  8.2200000000000E-01 -1.2165462329517E+00
   413  8.2400000000000E-01 -1.2135934509120E+00
   414  8.2600000000000E-01 -1.2106549680648E+00
   415  8.2800000000000E-01 -1.2077306807927E+00
   416  8.3000000000000E-01 -1.2048204864772E+00
   417  8.3200000000000E-01 -1.2019242834863E+00
   418  8.3400000000000E-01 -1.1990419711630E+00
   419  8.3600000000000E-01 -1.1961734498134E+00
   420  8.3800000000000E-01 -1.1933186206956E+00
   421  8.4000000000000E-01 -1.1904773860078E+00
   422  8.4200000000000E-01 -1.1876496488776E+00
   423  8.4400000000000E-01 -1.1848353133507E+00
   424  8.4600000000000E-01 -1.1820342843803E+00
   425  8.4800000000000E-01 -1.1792464678163E+00
   426  8.5000000000000E-01 -1.1764717703945E+00
   427  8.5200000000000E-01 -1.1737100997267E+00
   428  8.5400000000000E-01 -1.1709613642899E+00
   429  8.5600000000000E-01 -1.1682254734167E+00
   430  8.5800000000000E-01 -1.1655023372849E+00
   431  8.6000000000000E-01 -1.1627918669079E+00
   432  8.6200000000000E-01 -1.1600939741250E+00
   433  8.6400000000000E-01 -1.1574085715918E+00
   434  8.6600000000000E-01 -1.1547355727706E+00
   435  8.6800000000000E-01 -1.1520748919217E+00
   436  8.7000000000000E-01 -1.1494264440933E+00
   437  8.7200000000000E-01 -1.1467901451134E+00
   438  8.7400000000000E-01 -1.1441659115803E+00
   439  8.7600000000000E-01 -1.1415536608539E+00
   440  8.7800000000000E-01 -1.1389533110471E+00
   441  8.8000000000000E-01 -1.1363647810174E+00
   442  8.8200000000000E-01 -1.1337879903579E+00
   443  8.8400000000000E-01 -1.1312228593897E+00
   444  8.8600000000000E-01 -1.1286693091533E+00
   445  8.8800000000000E-01 -1.1261272614004E+00
   446  8.9000000000000E-01 -1.1235966385863E+00
   447  8.9200000000000E-01 -1.1210773638614E+00
   448  8.9400000000000E-01 -1.1185693610643E+00
   449  8.9600000000000E-01 -1.1160725547131E+00
   450  8.9800000000000E-01 -1.1135868699987E+00
   451  9.0000000000000E-01 -1.1111122327769E+00
   452  9.0200000000000E-01 -1.1086485695609E+00
   453  9.0400000000000E-01 -1.1061958075144E+00
   454  9.0600000000000E-01 -1.1037538744444E+00
   455  9.0800000000000E-01 -1.1013226987936E+00
   456  9.1000000000000E-01 -1.0989022096339E+00
   457  9.1200000000000E-01 -1.0964923366596E+00
   458  9.1400000000000E-01 -1.0940930101801E+00
   459  9.1600000000000E-01 -1.0917041611135E+00
   460  9.1800000000000E-01 -1.0893257209801E+00
   461  9.2000000000000E-01 -1.0869576218954E+00
   462  9.2200000000000E-01 -1.0845997965642E+00
   463  9.2400000000000E-01 -1.0822521782737E+00
   464  9.2600000000000E-01 -1.0799147008876E+00
   465  9.2800000000000E-01 -1.0775872988398E+00
   466  9.3000000000000E-01 -1.0752699071279E+00
   467  9.3200000000000E-01 -1.0729624613079E+00
   468  9.3400000000000E-01 -1.0706648974874E+00
   469  9.3600000000000E-01 -1.0683771523203E+00
   470  9.3800000000000E-01 -1.0660991630008E+00
   471  9.4000000000000E-01 -1.0638308672573E+00
   472  9.4200000000000E-01 -1.0615722033475E+00
   473  9.4400000000000E-01 -1.0593231100519E+00
   474  9.4600000000000E-01 -1.0570835266692E+00
   475  9.4800000000000E-01 -1.0548533930098E+00
   476  9.5000000000000E-01 -1.0526326493914E+00
   477  9.5200000000000E-01 -1.0504212366330E+00
   478  9.5400000000000E-01 -1.0482190960500E+00
   479  9.5600000000000E-01 -1.0460261694488E+00
   480  9.5800000000000E-01 -1.0438423991217E+00
   481  9.6000000000000E-01 -1.0416677278421E+00
   482  9.6200000000000E-01 -1.0395020988592E+00
   483  9.6400000000000E-01 -1.0373454558930E+00
   484  9.6600000000000E-01 -1.0351977431299E+00
   485  9.6800000000000E-01 -1.0330589052172E+00
   486  9.7000000000000E-01 -1.0309288872591E+00
   487  9.7200000000000E-01 -1.0288076348113E+00
   488  9.7400000000000E-01 -1.0266950938769E+00
   489  9.7600000000000E-01 -1.0245912109015E+00
   490  9.7800000000000E-01 -1.0224959327688E+00
   491  9.8000000000000E-01 -1.0204092067960E+00
   492  9.8200000000000E-01 -1.0183309807296E+00
   493  9.8400000000000E-01 -1.0162612027410E+00
   494  9.8600000000000E-01 -1.0141998214219E+00
   495  9.8800000000000E-01 -1.0121467857805E+00
   496  9.9000000000000E-01 -1.0101020452368E+00
   497  9.9200000000000E-01 -1.0080655496189E+00
   498  9.9400000000000E-01 -1.0060372491587E+00
   499  9.9600000000000E-01 -1.0040170944877E+00
   500  9.9800000000000E-01 -1.0020050366333E+00
   501  1.0000000000000E+00 -1.0000010270144E+00
   502  1.0020000000000E+00 -9.9800501743818E-01
   503  1.0040000000000E+00 -9.9601696009554E-01
   504  1.0060000000000E+00 -9.9403680755766E-01
   505  1.0080000000000E+00 -9.9206451277213E-01
   506  1.0100000000000E+00 -9.9010002905924E-01
   507  1.0120000000000E+00 -9.8814331010826E-01
   508  1.0140000000000E+00 -9.8619430997387E-01
   509  1.0160000000000E+00 -9.8425298307251E-01
   510  1.0180000000000E+00 -9.8231928417884E-01
   511  1.0200000000000E+00 -9.8039316842222E-01
   512  1.0220000000000E+00 -9.7847459128325E-01
   513  1.0240000000000E+00 -9.7656350859033E-01
   514  1.0260000000000E+00 -9.7465987651631E-01
   515  1.0280000000000E+00 -9.7276365157510E-01
   516  1.0300000000000E+00 -9.7087479061835E-01
   517  1.0320000000000E+00 -9.6899325083221E-01
   518  1.0340000000000E+00 -9.6711898973405E-01
   519  1.0360000000000E+00 -9.6525196516933E-01
   520  1.0380000000000E+00 -9.6339213530837E-01
   521  1.0400000000000E+00 -9.6153945864325E-01
   522  1.0420000000000E+00 -9.5969389398474E-01
   523  1.0440000000000E+00 -9.5785540045924E-01
   524  1.0460000000000E+00 -9.5602393750575E-01
   525  1.0480000000000E+00 -9.5419946487287E-01
   526  1.0500000000000E+00 -9.5238194261593E-01
   527  1.0520000000000E+00 -9.5057133109404E-01
   528  1.0540000000000E+00 -9.4876759096714E-01
   529  1.0560000000000E+00 -9.4697068319323E-01
   530  1.0580000000000E+00 -9.4518056902551E-01
   531  1.0600000000000E+00 -9.4339721000962E-01
   532  1.0620000000000E+00 -9.4162056798086E-01
   533  1.0640000000000E+00 -9.3985060506149E-01
   534  1.0660000000000E+00 -9.3808728365801E-01
   535  1.0680000000000E+00 -9.3633056645854E-01
   536  1.0700000000000E+00 -9.3458041643016E-01
   537  1.0720000000000E+00 -9.3283679681630E-01
   538  1.0740000000000E+00 -9.3109967113418E-01
   539  1.0760000000000E+00 -9.2936900317231E-01
   540  1.0780000000000E+00 -9.2764475698790E-01
   541  1.0800000000000E+00 -9.2592689690443E-01
   542  1.0820000000000E+00 -9.2421538750914E-01
   543  1.0840000000000E+00 -9.2251019365061E-01
   544  1.0860000000000E+00 -9.2081128043638E-01
   545  1.0880000000000E+00 -9.1911861323054E-01
   546  1.0900000000000E+00 -9.1743215765141E-01
   547  1.0920000000000E+00 -9.1575187956918E-01
   548  1.0940000000000E+00 -9.1407774510361E-01
   549  1.0960000000000E+00 -9.1240972062176E-01
   550  1.0980000000000E+00 -9.1074777273574E-01
   551  1.1000000000000E+00 -9.0909186830049E-01
   552  1.1020000000000E+00 -9.0744197441156E-01
   553  1.1040000000000E+00 -9.0579805840295E-01
   554  1.1060000000000E+00 -9.0416008784493E-01
   555  1.1080000000000E+00 -9.0252803054191E-01
   556  1.1100000000000E+00 -9.0090185453035E-01
   557  1.1120000000000E+00 -8.9928152807667E-01
   558  1.1140000000000E+00 -8.9766701967517E-01
   559  1.1160000000000E+00 -8.9605829804600E-01
   560  1.1180000000000E+00 -8.9445533213316E-01
   561  1.1200000000000E+00 -8.9285809110245E-01
   562  1.1220000000000E+00 -8.9126654433953E-01
   563  1.1240000000000E+00 -8.8968066144797E-01
   564  1.1260000000000E+00 -8.8810041224725E-01
   565  1.1280000000000E+00 -8.8652576677097E-01
   566  1.1300000000000E+00 -8.8495669526482E-01
   567  1.1320000000000E+00 -8.8339316818480E-01
   568  1.1340000000000E+00 -8.8183515619532E-01
   569  1.1360000000000E+00 -8.8028263016739E-01
   570  1.1380000000000E+00 -8.7873556117677E-01
   571  1.1400000000000E+00 -8.7719392050220E-01
   572  1.1420000000000E+00 -8.7565767962366E-01
   573  1.1440000000000E+00 -8.7412681022055E-01
   574  1.1460000000000E+00 -8.7260128416996E-01
   575  1.1480000000000E+00 -8.7108107354497E-01
   576  1.1500000000000E+00 -8.6956615061294E-01
   577  1.1520000000000E+00 -8.6805648783379E-01
   578  1.1540000000000E+00 -8.6655205785838E-01
   579  1.1560000000000E+00 -8.6505283352683E-01
   580  1.1580000000000E+00 -8.6355878786690E-01
   581  1.1600000000000E+00 -8.6206989409234E-01
   582  1.1620000000000E+00 -8.6058612560135E-01
   583  1.1640000000000E+00 -8.5910745597494E-01
   584  1.1660000000000E+00 -8.5763385897535E-01
   585  1.1680000000000E+00 -8.5616530854458E-01
   586  1.1700000000000E+00 -8.5470177880281E-01
   587  1.1720000000000E+00 -8.5324324404686E-01
   588  1.1740000000000E+00 -8.5178967874871E-01
   589  1.1760000000000E+00 -8.5034105755397E-01
   590  1.1780000000000E+00 -8.4889735528046E-01
   591  1.1800000000000E+00 -8.4745854691673E-01
   592  1.1820000000000E+00 -8.4602460762060E-01
   593  1.1840000000000E+00 -8.4459551271773E-01
   594  1.1860000000000E+00 -8.4317123770025E-01
   595  1.1880000000000E+00 -8.4175175822530E-01
   596  1.1900000000000E+00 -8.4033705011366E-01
   597  1.1920000000000E+00 -8.3892708934842E-01
   598  1.1940000000000E+00 -8.3752185207355E-01
   599  1.1960000000000E+00 -8.3612131459260E-01
   600  1.1980000000000E+00 -8.3472545336740E-01
   601  1.2000000000000E+00 -8.3333424501667E-01
   602  1.2020000000000E+00 -8.3194766631473E-01
   603  1.2040000000000E+00 -8.3056569419027E-01
   604  1.2060000000000E+00 -8.2918830572497E-01
   605  1.2080000000000E+00 -8.2781547815232E-01